<?xml version="1.0"?>
<VTKFile type="PolyData" version="0.1" byte_order="LittleEndian" header_type="UInt32" compressor="vtkZLibDataCompressor">
  <PolyData>
    <Piece NumberOfPoints="686" NumberOfVerts="686" NumberOfLines="0" NumberOfStrips="0" NumberOfPolys="0">
      <PointData>
        <DataArray type="Float64" Name="density" format="ascii" RangeMin="574.9947766287679" RangeMax="1111.3888817859386">
          991.7592053827514 938.8975026182744 1008.879877017855 979.3729771518105 1028.7286028773608 970.3394394231278
          983.7033189868094 1008.8349282216375 1013.7408925017037 976.7532087470664 1029.8894243370898 1019.669304901351
          881.5058807249587 996.4326594822925 1013.4683592530125 963.8601652225054 987.9959725610006 1099.3143157339348
          934.8252603799982 1025.8460076524354 1012.9868423478364 994.1824291584091 1018.9081155908585 994.271833141822
          895.1016196695159 949.6335515693678 1094.2515751323556 1018.8666061880116 988.5770894665761 1027.0410206260135
          1056.823456395248 958.0278900671166 978.84430614499 924.9966685738651 995.6096494596543 1008.2712084978994
          1053.6366289971534 981.3787549714498 991.0187909013252 1002.6827051120373 1058.41316484009 999.8771069060801
          998.4350070493043 984.7453619725718 963.49111464743 1023.8434034860749 909.4567250920738 988.8118139908455
          1006.5820898249011 1021.3341035778118 1025.4145031705432 591.5330835834174 1055.821430120477 591.5555213199383
          1098.1141005151765 1031.6917126527464 905.8155148258493 984.8024434055133 962.9204853801115 1017.3660158850157
          1004.9315215738349 967.8837776310977 1027.8046424036145 591.498292750181 1029.4964522564046 996.0740651637275
          575.1583079652983 998.1182225943375 926.1382308157184 591.4256200734588 1041.1522615063104 998.0594224488291
          574.9947766287679 997.7181881562057 575.0079435833633 943.307473560838 1048.1359916384627 591.4982927707462
          932.5692944674759 996.074425607858 575.1583082151699 998.1182262998559 1014.3630284112849 591.4256200757867
          1040.770795748124 984.7900514261627 1035.4313756767056 985.1509535810329 886.1249143080872 1035.9616555167067
          1043.8613459908302 979.5052364211382 946.4291728204714 591.5330837127798 1009.1413509049667 591.5555215285863
          1055.8113658438403 1042.4550722955298 956.8224196290679 980.6971847780254 1002.6004159816397 829.2180501709378
          1038.0652265337735 1039.8273967788457 985.2953060154626 1015.1633119991676 827.1756391012585 949.3859502081934
          1021.023761038511 909.0060391377526 988.1429756680101 987.7612588409329 998.2805353576674 993.2223064749045
          1023.9768303483626 976.6691332072272 922.1978621898302 974.8532707142339 1005.0708506237514 818.3113951534395
          1002.700553088006 977.9999445697741 943.6014521631357 911.6845537704327 982.46658229257 819.3794683624014
          1007.6789040086262 1027.63768271723 933.2471375869765 985.8369226494784 970.5937230091539 937.6260704451557
          1033.0116826007124 1016.2796118490114 827.7115295623813 995.3545197494541 1047.4399480120353 953.5893944964406
          1002.0833558546864 1007.0529531679955 971.5000806167817 1015.9661874859157 999.7915984922562 812.9402808983887
          994.5209507889672 921.366074478835 1016.786413871551 971.3613145278703 1017.7167984914392 829.454291216604
          1003.2204544275509 827.9730149012261 943.5504581601709 982.096960602273 1009.1449011099813 1020.7468335591873
          981.66245413886 977.7933127251441 985.0608063562222 1042.5790388195471 878.098098144725 798.6420348212168
          1001.9545352197192 824.11872573448 962.2514057308322 955.9544622739378 1003.9526877039121 824.5086790427805
          987.1306080641137 1096.9547817818589 1013.9164802086152 1094.2056901823807 1034.758435673466 987.3117245702555
          987.2709175347032 822.3211068159122 1000.892420615846 821.2114536827816 964.5044654228927 1005.8963361090778
          1003.952130707152 821.2746954219003 1009.143559724857 1040.221605707198 979.9665171061963 1044.784502485585
          985.0591093931486 1025.16094875364 931.1178072382863 1009.0844767714837 1017.7189078316652 821.5384057543637
          981.322411001207 821.9162093999562 999.1548057668691 980.399411686965 973.5406155857909 971.9792377513003
          993.663010291021 827.9256830199577 1009.7750320386557 1008.2054206081108 989.8683212356664 982.5536470985252
          954.080426808384 964.8187677826671 961.4442676215604 1046.9817467459766 988.7889924925291 1000.6434488636635
          986.5999740096694 994.1554351454939 992.2321129884189 1033.0660112861349 1016.8553909411567 986.2744610509171
          1030.0636315007523 817.1629865545967 1044.1036628441793 1008.8894072269978 988.344218517801 1035.4776108505378
          981.256559069386 821.941162839261 986.6194340427904 905.1803444396604 1012.7284784582133 971.7018472998947
          958.7383964487444 976.8062457857761 978.8471114415344 979.504982163683 974.3664769697057 1022.3889223577293
          1016.4083301427762 957.4849613313495 953.596308140872 1000.6450727135144 910.4597288785725 971.2463732544879
          993.6742902678263 825.4506606607824 966.3914831413326 1008.204576964774 970.9756067875888 912.3266005926293
          826.441713171897 1034.8448598085602 1017.7796851749646 957.1079632377937 1019.2713531283788 1016.5445469323971
          817.2028395215442 1013.0193589767389 950.9199696009848 998.9207403865333 1003.1666149374512 985.0631163253918
          991.5177047262978 1011.1797046822142 984.2025661155176 996.6674677643318 1038.245084432955 1018.6871535690938
          1000.8230386295327 1013.0577552220174 949.5691813540736 973.7697046880163 966.0534028206365 1012.3588316664243
          992.8021399859384 974.6254786683947 1111.3888817859386 1013.4249084759249 980.9537797883079 952.1415976981552
          957.5275231380732 960.4773870174006 1012.0407129630671 1014.0864396027815 820.8751416679811 1014.0503708864119
          988.7826614500982 996.3374066420968 980.4276398771112 1005.9813594419501 971.2857265434427 1001.4058831032519
          827.5228212528019 1035.73935462693 1040.5462312627385 955.1458275205558 973.0753933884855 977.7787596955914
          1025.1023039359131 946.3081666197 1038.2205117293042 1003.1152755872566 991.6167797196703 1037.6188325425405
          943.5954641050749 1031.4903532372387 1014.1183800418011 1042.383249427197 973.8885728151007 1026.3280408474702
          963.0762584993581 1013.9130759519509 1013.3674849171875 984.002499697874 981.2967893198459 997.358636411139
          1021.6010374200564 1025.1858467479642 1032.531601402274 977.7499761982928 1020.323221669561 1103.816911336631
          975.6228132333213 931.8537516047313 1061.069358448992 957.8386337111128 1014.7212259028244 986.6488649621919
          939.9294469124111 911.1413591884548 988.1438549879849 1025.1876494393996 1026.580296949545 948.8114931863653
          988.2264694848509 1046.4910175306889 976.0699463686785 1026.3283443104397 914.4539347858538 994.0005494982566
          963.3140910269325 1017.2645281432298 1037.0264052778352 997.3130193697367 992.4081981792535 974.2801806421339
          878.3825637675677 1021.4377346281506 933.6880158023511 1031.6423084184107 988.0848447651418 991.3754565329904
          1017.3737093749997 1003.8835308196722 1069.7697487999728 1018.5856108111681 1042.5103016266219 998.2980667096901
          1026.326664803487 1055.2192642434793 1004.179134743042 1013.6498013840586 984.0528360433235 988.2282111065848
          987.3828774412834 967.4572920662056 1025.1854849959711 1051.1356409390028 976.647985334202 1058.838948796203
          1085.6879074774906 1012.2885690811883 965.4506833225909 1020.1374485474015 983.171180976012 1009.1187870661707
          986.6599633412545 1021.7278231274707 996.1408551132524 964.0376172369912 1025.1871285044124 1048.319126239953
          963.030578629336 1027.2505002436994 1046.4825350603567 984.6613671604614 1026.3276808082958 944.9311742114263
          969.1930404364073 1001.5215191821925 965.2555205170322 1035.3817896771172 991.2046092709942 992.6925355000584
          968.4140912658486 1000.7137785230652 982.7485704915078 828.9997158070362 1026.4872706501621 1050.5088279814327
          958.1330317138552 1008.8161642053034 1058.865895810562 830.2596305340383 1009.2600090735905 933.3360971578062
          949.213088721549 1018.1613465576581 954.9433227648635 951.9307233524439 1014.8496293359193 1038.5748327365084
          933.3603247366227 1011.0800706640215 985.7218568020281 1036.3409914105307 1040.4253256859188 979.0716243760786
          985.1880141280728 1018.4458120895274 1031.0739050120587 900.1346203852258 1005.0265343077416 994.123151220389
          1011.7664546251176 983.8936807339916 1005.0093311646659 1055.544395275319 1005.3162791933819 983.5878208181006
          1039.2435599099547 825.8308829051081 1027.7017331544585 989.0938668451212 1018.285311306876 1046.7942381209389
          991.733189844659 921.409162704609 986.4199115969582 824.6585027574968 1035.0818518544452 1044.3655310936829
          955.1121803530715 1007.1337896813843 949.3912917007074 964.4245910090905 971.9400908460249 993.6738762408178
          816.045274091882 963.1421387625259 1008.2062689239264 940.4125953358563 982.5661164071508 921.4863538938872
          1029.5237398036102 1017.117959197408 967.5864565480128 1012.7515735302358 1000.640182361054 986.6186013086057
          993.4076514912443 967.9748166495857 931.0235530586241 1000.7937511358575 969.3024159989569 1072.4186364788934
          821.6814534868403 1012.4653439049689 979.7809098807943 1003.0533910176003 1012.7095892809319 1027.7152825999824
          809.3324255836443 986.6190612789679 1050.9815213183617 964.2303495237563 1002.217353601336 1047.3914424536201
          1025.0097246450625 955.3524844482091 979.5066690095763 982.922727890014 1053.8163594683244 994.4270000501023
          971.1540484150503 932.1131509241065 1000.6426488797055 968.9872674538587 971.2496528942166 993.6740786620055
          829.7911429271562 973.4198510396034 1008.2053696613066 999.3247101368767 1054.744852321168 1017.7188307418332
          822.846140171393 1056.7161267632837 817.2221700572521 914.888050237008 1006.8710558684662 1009.1437123582892
          994.0203005596296 981.56035343388 1066.894176909337 985.0624536859291 1025.7456734756333 948.5720152273932
          816.7258347112504 1001.9819611886609 828.5624184259849 968.3008387597426 1026.4195354459198 1003.9503281139383
          807.961768134466 1001.1044449977675 914.947231656696 978.351191492127 994.647000193484 989.9034707743286
          974.9697091368864 987.0515110914796 823.9646142688522 1000.891355418329 827.3538910325661 970.7804732531251
          1029.1519579939363 1003.9503027331925 820.4483912141485 1009.1435546322923 989.3869248253897 979.9506374498374
          965.8848262326752 985.0610344191638 944.1607970963624 960.9897529490446 1065.6675642118016 1017.7188718401735
          829.78846459711 995.6305394486428 829.0951929379893 967.996777847797 939.7470013713161 890.568384728998
          1032.5854887507974 1009.7691443423122 814.3983891592814 911.4270987691204 1004.9578489586905 1011.773671536475
          986.4039073649348 830.499793262944 1019.1208564382044 960.1795668459757 994.3112002831331 1027.9772460267138
          972.1865541705224 923.7746832033905 951.9793044749799 989.5763184283798 977.8642611141149 1045.5119625803807
          962.8062490129945 1096.9344848581566 821.51355088904 987.8390633478906 1098.9723158150723 986.3853569266302
          944.0093373283285 987.5234386606393 820.0493367317542 961.0281796012775 1067.1234050116018 953.6070074431441
          974.440140033981 1102.14335680718 994.4416010735421 898.4995488127439 1013.750097574759 825.9136756854521
          1057.8181078506634 1089.2825221665134 974.7586375404588 1016.3224918494069 1077.0461117899779 1025.688003425674
          984.222478787462 944.7305902781098 828.2557409534097 1000.0665934541669 1007.1713432334552 996.2269236587754
          928.8273795190726 1066.7245035419621 591.5330837376521 995.546556070041 591.5555215585647 959.7376728355081
          1046.87396529027 982.864060152884 984.7901285835151 1032.7158855795844 1010.8024167360103 1087.1878840401678
          935.2364765226812 985.7049371972724 591.4982927744561 959.9609754261625 981.888980167026 575.1583082559359
          988.3950080253144 984.7311771122356 591.4256201151022 960.6839871074853 1006.9762851224414 574.9947766608017
          1004.2184859462237 575.0079436386255 883.5786292840601 980.9435678353964 591.4982927811027 1000.2059480133152
          981.8726765891199 575.158308184243 988.4920723826573 997.6290676300512 591.4256201172527 1021.6009788522964
          984.7903608650864 974.8722014440618 961.9591761951384 978.4662630871545 980.7775384816199 1037.5225583722945
          955.0465173941368 1017.9366288363785 591.5330836903149 1095.5648668822691 591.5555215090859 1081.427910497339
          995.2105597753999 985.8288768887719 926.3021628635546 1027.233940453327 970.8618990666956 1070.4971047856322
          918.600108561158 961.0028649554963 994.1548257174561 1004.5036772954628 951.0929771214829 970.6937873022484
          998.2904140505192 1030.075101577055 1004.1316746349854 984.3166089737235 1011.7794563683885 957.6717688781733
          930.9154213613169 1030.7923980489936 957.4085161826961 996.8598808018075 964.2615394812198 1033.8035287598257
          972.2026447363479 1024.9635599784629 983.2599023188131 1006.9316558889153 950.9285630236049 899.2579732144656
          1024.4820771789973 982.4280178310404 1045.7700413769187 962.3426124244422 975.7593782003232 1012.6972234146617
          963.7492661429093 987.6440264826794 982.517511776171 1021.6673219718808 906.3984270260686 1029.840861495809
          995.5490113377429 1015.5868399046257 946.6830486578514 914.2951430211215 998.5012152240251 1050.7406620922368
          1045.5899038739897 987.9346929035155
        </DataArray>
        <DataArray type="Float64" Name="pressure" format="ascii" RangeMin="-51000.62680454785" RangeMax="13366.665814312628">
          -988.8953540698367 -7332.29968580707 1065.5852421426061 -2475.242741782745 3447.432345283296 -3559.2672692246606
          -1955.601721582866 1060.191386596498 1648.907100204442 -2789.614950352029 3586.730920450782 2360.316588162118
          -14219.294313004953 -428.0808621249025 1616.2031103615027 -4336.7801732993485 -1440.4832926799281 11917.717888072175
          -7820.9687544002145 3101.5209182922536 1558.4210817403664 -698.108500990902 2268.9738709030235 -687.3800229813651
          -12587.80563965809 -6043.973811675864 11310.18901588267 2263.9927425613905 -1370.7492640108649 3244.9224751216207
          6818.814767429767 -5036.653191946011 -2538.6832626011983 -9000.399771136184 -526.8420648414849 992.5450197479222
          6436.395479658404 -2234.5494034260264 -1077.7450918409704 321.92461344447565 7009.579780810809 -14.74717127038275
          -187.79915408348188 -1830.556563291384 -4381.066242308402 2861.2084183289835 -10865.19298895114 -1342.582321098539
          789.8507789881342 2560.0924293374146 3049.740380465182 -49016.02996998992 6698.571614457251 -49013.33744160741
          11773.692061821175 3803.0055183295735 -11302.138220898087 -1823.706791338409 -4449.541754386623 2083.9219062018856
          591.7825888601828 -3853.946684268276 3336.5570884337376 -49020.204869978275 3539.574270768553 -471.1121803527021
          -50981.00304416421 -225.8132886795056 -8863.41230211379 -49028.92559118494 4938.271380757251 -232.86930614051016
          -51000.62680454785 -273.8174212553213 -50999.04676999641 -6803.103172699434 5776.318996615519 -49020.20486751046
          -8091.684663902897 -471.0689270570447 -50981.003014179616 -225.81284401729135 1723.563409354183 -49028.925590905594
          4892.495489774892 -1825.1938288604788 4251.765081204667 -1781.8855702760493 -13665.010283029533 4315.398662004809
          5263.361518899619 -2459.371629463417 -6428.499261543429 -49016.02995446642 1096.9621085959989 -49013.337416569644
          6697.363901260842 5094.608675463578 -5181.309644511853 -2316.33782663695 312.0499177967622 -20493.833979487466
          4567.827184052821 4779.2876134614835 -1764.5632781444829 1819.5974399001125 -20738.923307848978 -6073.685975016788
          2522.8513246213197 -10919.275303469685 -1422.8429198387903 -1468.6489390880524 -206.33575707990985 -813.3232230114618
          2877.2196418035082 -2799.7040151327337 -9336.256537220379 -3017.6075142919353 608.5020748501711 -21802.632581587255
          324.06637056072213 -2640.0066516271045 -6767.825740423714 -10597.853547548078 -2104.010124891597 -21674.463796511827
          921.4684810351446 3316.5219260676076 -8010.343489562824 -1699.569282062589 -3528.7532389015314 -7484.871546581312
          3961.4019120854937 1953.55342188137 -20674.61645251424 -557.4576300655099 5692.793761444236 -5569.272660427127
          250.0027025623649 846.3543801594597 -3419.990325986196 1915.942498309887 -25.008180929257833 -22447.16629219336
          -657.4859053239379 -9436.071062539799 2014.3696645861155 -3436.6422566555684 2126.01581897271 -20465.485054007517
          386.4545313061035 -20643.238211852873 -6773.945020779488 -2148.364727727235 1097.38813319776 2489.6200271024736
          -2200.5055033368035 -2664.8024729827057 -1792.7032372533358 5109.484658345655 -14628.228222633003 -24162.95582145398
          234.54422636630625 -21105.7529118624 -4529.831312300139 -5285.464527127465 474.3225244694577 -21058.95851486634
          -1544.3270323063507 11634.573813823063 1669.9776250338255 11304.68282188569 4171.012280815921 -1522.5930515693426
          -1527.4898958356107 -21321.46718209053 107.09047390152591 -21454.625558066215 -4259.464149252872 707.5603330893318
          474.2556848582444 -21447.03654937196 1097.2271669828433 4826.592684863763 -2404.017947256443 5374.140298270213
          -1792.9068728221728 3019.3138504368017 -8265.86313140564 1090.137212578038 2126.2689397998247 -21415.39130947636
          -2241.31067985516 -21370.054872005257 -101.42330797570594 -2352.070597564202 -3175.126129705095 -3362.491469843967
          -760.4387650774788 -20648.91803760508 1173.0038446386834 984.6504729732942 -1215.8014517200354 -2093.562348176979
          -5510.3487829939195 -4221.747866079945 -4626.687885412757 5637.8096095171895 -1345.320900896504 77.21386363961756
          -1608.0031188396742 -701.347782540729 -932.1464413897365 3967.9213543361857 2022.6469129387988 -1647.064673889945
          3607.635780090277 -21940.44161344839 5292.439541301519 1066.7288672397399 -1398.6937778638821 4257.313302064531
          -2249.212911673685 -21367.06045928868 -1605.6679148651483 -11378.358667240751 1527.417414985598 -3395.77832401264
          -4951.392426150669 -2783.2505057068647 -2538.346627015876 -2459.4021403580336 -3076.0227636353193 2686.670682927511
          1968.999617133145 -5101.8046402380605 -5568.44302309536 77.40872562173081 -10744.832534571302 -3450.435209461448
          -759.0851678608396 -20945.920720706108 -4033.0220230400846 984.549235772879 -3482.9271854893386 -10520.807928884478
          -20826.994419372353 4181.383177027219 2133.56222099575 -5147.044411464758 2312.562375405455 1985.3456318876533
          -21935.659257414696 1562.3230772086663 -5889.603647881822 -129.51115361599932 379.9937924941423 -1792.426040952987
          -1017.8754328442665 1341.5645618656981 -1895.69206613789 -399.9038682801802 4589.41013195461 2242.458428291252
          98.76463554392103 1566.9306266420836 -6051.698237511164 -3147.6354374380435 -4073.591661523619 1483.0597999709153
          -863.743201687389 -3044.94255979263 13366.665814312628 1610.9890171109873 -2285.546425403054 -5743.0082762213715
          -5096.697223431215 -4742.7135579119295 1444.885555568053 1690.372752333783 -21494.98299984227 1686.044506369426
          -1346.0806259882156 -439.511202948388 -2348.683214746652 717.7631330340091 -3445.7128147868752 168.70597239022572
          -20697.26144966377 4288.722555231598 4865.54775152862 -5382.500697533301 -3230.952793381739 -2666.5488365290366
          3012.276472309577 -6443.0200056359945 4586.461407516508 373.833070470796 -1005.9864336395685 4514.259905104864
          -6768.544307391007 3778.842388468638 1694.2056050161273 5085.98993126363 -3133.371262187916 3159.3649016964264
          -4430.848980077026 1669.5691142341047 1604.0981900625047 -1919.7000362551216 -2244.385281618497 -316.9636306633265
          2592.124490406768 3022.3016097557047 3903.7921682728756 -2670.002856204869 2438.786600347321 12458.029360395713
          -2925.262412001448 -8177.549807432242 7328.323013879044 -5059.36395466646 1766.547108338923 -1602.1362045369779
          -7208.466370510669 -10663.036897385427 -1422.7374014418092 3022.517932727951 3189.6356339454087 -6142.620817636166
          -1412.8236618178926 5578.922103682662 -2871.6064357585765 3159.4013172527593 -10265.527825697545 -719.9340602092025
          -4402.3090767681015 2071.743377187572 4443.168633340229 -322.4376756315951 -911.0162184895762 -3086.3783229439287
          -14594.092347891874 2572.528155378068 -7957.438103717873 3797.0770102092865 -1429.8186281829794 -1034.9452160411556
          2084.84512499997 466.0236983606592 8372.36985599674 2230.273297340168 5101.236195194624 -204.23199483718236
          3159.199776418427 6626.311709217516 501.4961691650433 1637.9761660870327 -1913.6596748011789 -1412.614667209823
          -1514.0547070459888 -3905.12495205533 3022.2581995165365 6136.276912680332 -2802.2417598957645 7060.6738555443735
          10282.548897298875 1474.6282897425908 -4145.9180012890965 2416.4938256881806 -2019.4582828785587 1094.2544479404887
          -1600.804399049457 2607.338775296489 -463.09738640970863 -4315.4859315610565 3022.455420529486 5798.295148794359
          -4436.330564479681 3270.060029243932 5577.9042072428 -1840.6359407446325 3159.3216969954938 -6608.259094628843
          -3696.8351476311273 182.58230186309902 -4169.337537956135 4245.814761254069 -1055.446887480698 -876.8957399929923
          -3790.30904809817 85.65342276782758 -2070.171541019058 -20520.03410315566 3178.4724780194574 6061.059357771919
          -5024.036194337377 1057.9397046364056 7063.907497267446 -20368.84433591541 1111.2010888308578 -7999.668341063257
          -6094.429353414125 2179.361586918976 -5406.801268216377 -5768.31319770673 1781.9555203103164 4628.979928381004
          -7996.761031605274 1329.608479682579 -1713.3771837566246 4360.918969263685 4851.039082310253 -2511.4050748705677
          -1777.4383046312596 2213.497450743289 3728.8686014470477 -11983.845553772899 603.1841169289919 -705.2218535533211
          1411.9745550141124 -1932.7583119210112 601.1197397599108 6665.327433038274 637.9535032058266 -1969.461501827932
          4709.227189194562 -20900.29405138703 3324.2079785350143 -1308.7359785854596 2194.2373568251196 5615.308574512665
          -992.0172186409172 -9430.90047544692 -1629.6106083650193 -21040.979669100387 4209.822222533421 5323.863731241945
          -5386.538357631421 856.0547617661177 -6073.044995915116 -4269.049078909143 -3367.1890984770152 -759.1348511018668
          -22074.56710897416 -4422.943348496897 984.7522708711631 -7150.488559697246 -2092.0660311418987 -9421.637532733534
          3542.8487764332203 2054.155103688963 -3889.6252142384583 1530.1888236282912 76.82188332648366 -1605.7678429673206
          -791.0818210506795 -3843.0220020497154 -8277.17363296511 95.25013630290232 -3683.71008012517 8690.236377467209
          -21398.22558157917 1495.8412685962685 -2426.2908143046843 366.4069221120417 1525.1507137118324 3325.833911997888
          -22880.108929962684 -1605.712646523848 6117.7825582034075 -4292.35805714924 266.08243216031497 5686.9730944344155
          3001.166957407504 -5357.701866214907 -2459.199718850846 -2049.272653198318 6457.963136198932 -668.7599939877282
          -3461.514190193966 -8146.421889107214 77.1178655646554 -3721.52790553695 -3450.0416526940035 -759.1105605593384
          -20425.062848741254 -3189.6178752475953 984.6443593567892 -81.03478357480071 6569.38227854017 2126.2596890199893
          -21258.463179432838 6805.935211594042 -21933.339593129745 -10213.433971559043 824.5267042159458 1097.2454829947083
          -717.5639328444458 -2212.757587934402 8027.30122912043 -1792.5055576885097 3089.4808170760007 -6171.358172712817
          -21992.89983464995 237.83534263930505 -20572.509788881813 -3803.8993488308824 3170.344253510375 474.03937367259914
          -23044.587823864087 132.53339973209677 -10206.332201196483 -2597.8570209447616 -642.3599767819178 -1211.5835070805633
          -3003.6349035736293 -1553.8186690224484 -21124.246287737737 106.96265019947987 -20717.533076092062 -3506.3432096249835
          3498.2349592723585 474.03632798310355 -21546.19305430218 1097.2265558750769 -1273.5690209532413 -2405.923506019517
          -4093.820852078975 -1792.675869700347 -6700.704348436507 -4681.229646114648 7880.107705416194 2126.2646208208207
          -20425.384248346803 -524.3352661628614 -20508.576847441287 -3840.386658264356 -7230.359835442073 -13131.793832520238
          3910.258650095684 1172.2973210774626 -22272.19330088624 -10628.748147705546 594.941875042864 1412.8405843770042
          -1631.5311162078297 -20340.024808446724 2294.502772584533 -4778.451978482913 -682.6559660240309 3357.2695232056594
          -3337.6134995373104 -9147.038015593138 -5762.483463002409 -1250.84178859443 -2656.288666306209 5461.43550964568
          -4463.25011844066 11632.138182978788 -21418.373893315205 -1459.3123982531279 11876.677897808677 -1633.7571688043818
          -6718.879520600585 -1497.1873607232874 -21594.07959218949 -4676.618447846695 8054.808601392215 -5567.15910682271
          -3067.1831959222754 12257.2028168616 -667.0078711749511 -12180.05414247073 1650.011708971083 -20890.358917745754
          6938.172942079609 10713.902659981613 -3028.9634951449398 1958.6990219288282 9245.533414797346 3082.5604110808763
          -1893.3025455045572 -6632.329166626819 -20609.311085590834 7.991214500025308 860.5611880146262 -452.7691609469548
          -8540.714457711292 8006.940425035455 -49016.02995148175 -534.4132715950809 -49013.337412972236 -4831.479259739031
          5624.875834832401 -2056.312781653919 -1825.1845699781916 3925.9062695501325 1296.2900083212344 10462.546084820133
          -7771.622817278258 -1715.4075363273068 -49020.204867065266 -4804.682948860504 -2173.322379956876 -50981.003009287684
          -1392.599036962274 -1832.2587465317247 -49028.92558618773 -4717.92154710176 837.1542146929642 -51000.6268007038
          506.21831354684673 -50999.04676336494 -13970.564485912791 -2286.7718597524345 -49020.204866267675 24.71376159781812
          -2175.2788093056097 -50981.00301789084 -1380.951314081126 -284.5118843938599 -49028.925585929675 2592.117462275569
          -1825.1566961896287 -3015.3358267125805 -4564.898856583391 -2584.048429541458 -2306.695382205612 4502.70700467534
          -5394.417912703584 2152.395460365424 -49016.02995716221 11467.784025872297 -49013.337418909694 9771.349259680692
          -574.7328269520085 -1700.5347733473718 -8843.740456373449 3268.0728543992427 -3496.5721119965247 8459.65257427587
          -9767.986972661041 -4679.656205340443 -701.4209139052673 540.4412754555369 -5868.842745422048 -3516.7455237301874
          -205.15031393769732 3609.012189246596 495.8009561982499 -1882.006923153176 1413.5347642066245 -5079.387734619199
          -8290.149436641968 3695.087765879234 -5110.978058076471 -376.81430378309415 -4288.615262253629 4056.42345117908
          -3335.682631638251 2995.6271974155425 -2008.8117217424224 831.7987066698379 -5888.572437167418 -12089.043214264133
          2937.849261479678 -2108.637860275153 5492.404965230244 -4518.886509066933 -2908.874615961213 1523.6668097594065
          -4350.088062850887 -1482.716822078478 -2097.8985868594827 2600.078636625699 -11232.188756871768 3580.9033794970674
          -534.1186394708575 1870.4207885550795 -6398.034161057835 -10284.582837465423 -179.85417311698257 6088.879451068415
          5470.78846487876 -1447.8368515781403
        </DataArray>
        <DataArray type="Float64" Name="velocity" NumberOfComponents="3" format="ascii" RangeMin="8.441452878819966" RangeMax="25.21501044871306">
          -0.09248449531770643 -0.10818440695957877 -16.693565223546678 0.05108183430793181 0.383294902678725 -15.895846647552958
          0.4682240496218421 0.1340510555362407 -16.46196404551318 0.039032665777838024 -0.7630741906812764 -16.115134424117443
          -0.0889335461538273 -0.022301925962136565 -17.01556947354591 0.20754795832438117 0.6952000415341504 -16.414704361952083
          0.9175102042538336 -0.2479120537467712 -16.174540189662196 0.11451847018496067 0.23495877855417438 -16.28596765454375
          0.5571780579686979 -0.015045144245749861 -16.850609419160126 -0.025514638844281776 -0.32415491212258124 -16.542551218000913
          -0.21621825689907695 -0.5606328938619386 -16.533610941978033 0.12919236332466674 -0.014461232834319993 -16.990627636156052
          -1.540385864074059 0.2546883268830373 -16.77733632289183 -0.5384172915002389 0.12699167371865133 -16.145920544272546
          -0.19699337368607006 -0.34490544468024076 -15.993049845992514 1.3084744881305608 -0.3019383916363956 -16.653939257295075
          1.1703154733104053 -0.8113948363664297 -16.285002804550803 0.4132762731628089 -1.6654463911426975 -15.608098590771528
          1.0368489548086908 -0.04440643655306556 -16.219113620404823 0.3333112919312179 0.1456408074862658 -16.251649002490833
          0.027082967610958977 -0.3088156419877469 -16.03339464942689 0.2967757998362991 0.372740683031815 -16.207929651610144