<?xml version="1.0"?>
<VTKFile type="PolyData" version="0.1" byte_order="LittleEndian">
  <PolyData>
    <Piece NumberOfPoints="396" NumberOfVerts="396" NumberOfLines="0" NumberOfStrips="0" NumberOfPolys="0">
      <Points>
        <DataArray type="Float64" NumberOfComponents="3" format="ascii">
          0.145132 0.116077 25.222357
          -0.277956 -0.248233 25.273177
          0.559429 0.238470 24.594866
          0.894732 0.279108 24.759992
          -0.508453 -0.152115 24.848822
          0.379906 0.319800 25.276882
          0.070316 0.281895 24.778923
          -0.531228 -0.114517 25.298892
          0.191701 -0.282540 25.410049
          0.211884 -0.337915 24.805849
          0.084317 -0.552188 24.861109
          -0.008258 -0.031107 24.125372
          0.304877 0.217060 25.398292
          0.013317 0.572648 25.127113
          0.177717 -0.210382 24.871723
          0.050354 0.540400 25.173887
          -0.584271 0.180233 24.491008
          0.888966 0.313950 24.853747
          0.304458 -0.217099 25.398325
          0.013679 -0.572723 25.127573
          0.177464 0.210242 24.872216
          0.050386 -0.540371 25.173163
          -0.584506 -0.179973 24.490794
          0.888574 -0.314245 24.854209
          0.070169 -0.282040 24.779363
          -0.530969 0.114899 25.298858
          0.191511 0.282337 25.409600
          0.211771 0.337312 24.805743
          0.083900 0.552126 24.860924
          -0.007347 0.034824 24.126978
          0.143300 -0.115844 25.221633
          -0.277723 0.249113 25.272968
          0.559780 -0.238680 24.594973
          0.895257 -0.278698 24.760041
          -0.510414 0.151625 24.851005
          0.379701 -0.319877 25.276737
          0.952626 0.104277 24.762736
          -0.277259 -0.248262 25.200046
          -0.443788 -0.155291 24.564937
          -0.611155 -0.013534 25.404108
          -0.647858 -0.290335 24.893414
          -0.424889 -0.263019 25.297665
          -0.982163 -0.095761 24.852678
          -0.411359 0.190299 25.388185
          0.350141 -0.262330 25.356057
          1.027801 0.102653 24.798208
          -0.026551 0.268305 24.559511
          -0.733222 -0.304693 24.933389
          -0.716540 -0.081860 25.206080
          0.730051 -0.114343 25.207201
          -0.628430 0.169167 24.820570
          -0.409655 -0.229505 24.620367
          0.725039 -0.044911 24.824056
          -0.784007 -0.035447 25.306298
          -0.716488 0.081484 25.205988
          0.730081 0.114323 25.207139
          -0.627862 -0.169069 24.821048
          -0.409086 0.227636 24.618006
          0.724915 0.045001 24.823853
          -0.783549 0.035574 25.306803
          -0.982163 0.096329 24.851878
          -0.411131 -0.190112 25.387875
          0.350137 0.262331 25.355996
          1.027843 -0.102774 24.798393
          -0.026464 -0.268414 24.558263
          -0.731295 0.304846 24.932872
          0.952122 -0.104166 24.762312
          -0.277183 0.248150 25.199528
          -0.443787 0.155142 24.564941
          -0.611199 0.013290 25.404102
          -0.648783 0.290967 24.894438
          -0.424747 0.262838 25.297968
          5.699555 1.872622 34.935237
          -0.081414 -0.306302 25.276761
          0.792338 -0.262088 24.981874
          0.390608 0.192991 24.671548
          -0.656028 0.035335 24.382520
          5.660503 1.853376 14.887868
          -0.190413 -0.071865 24.917241
          -0.837405 0.243022 24.741928
          0.024566 0.225549 24.324822
          -0.469286 0.064833 25.397974
          -0.154700 0.244889 24.795197
          -0.973869 0.060524 24.903991
          0.793677 -0.151081 25.038275
          0.112859 0.002041 24.909288
          0.400231 -0.203409 25.232812
          0.371255 0.281333 25.297365
          0.526284 0.015594 24.378170
          0.620415 -0.023943 24.380099
          0.793355 0.150438 25.038312
          0.112160 -0.002029 24.909203
          0.400103 0.203307 25.232975
          0.370433 -0.281308 25.296484
          0.526341 -0.015586 24.378142
          0.620378 0.023867 24.380102
          -0.190313 0.072227 24.917189
          -0.835753 -0.242197 24.742142
          0.023325 -0.226557 24.325503
          -0.468938 -0.065208 25.397650
          -0.154952 -0.244458 24.794405
          -0.973758 -0.061234 24.904256
          5.663590 -1.848699 34.919367
          -0.081911 0.307676 25.275663
          0.792373 0.261897 24.982023
          0.390376 -0.193470 24.671920
          -0.656019 -0.035556 24.382557
          5.679741 -1.859534 14.891692
          -0.464057 0.250975 24.631512
          -0.650833 -0.079459 25.096227
          -0.178245 0.121508 24.886420
          -0.611112 -0.211655 24.568234
          -0.893082 -0.206809 24.719768
          -0.164419 0.286850 24.746442
          -0.931787 -0.002247 24.689970
          -0.933335 -0.271666 24.888284
          -0.476145 -0.270494 24.759376
          0.086204 -0.545611 24.833424
          -0.412759 -0.050749 24.710628
          -0.599399 -0.263053 24.685987
          -0.698165 -0.089730 25.348917
          -0.383398 -0.281633 25.236154
          -0.595772 -0.035966 24.348817
          -0.579838 0.099385 24.957587
          -0.658515 -0.123706 25.327090
          -0.809682 0.210604 24.977957
          -0.697767 0.089883 25.349093
          -0.383572 0.281382 25.235608
          -0.595874 0.035956 24.348829
          -0.580450 -0.097018 24.957414
          -0.657907 0.123977 25.327595
          -0.809272 -0.210078 24.978217
          -0.931668 0.002034 24.689995
          -0.933060 0.271927 24.887973
          -0.476599 0.270562 24.758957
          0.085690 0.546036 24.833968
          -0.412673 0.049147 24.710553
          -0.598577 0.263606 24.686533
          -0.458714 -0.249888 24.630033
          -0.651470 0.079375 25.096387
          -0.178447 -0.121117 24.886298
          -0.611077 0.211517 24.568213
          -0.893559 0.206753 24.719943
          -0.164550 -0.286901 24.746242
          5.651961 1.848979 34.924974
          -0.610829 0.194917 24.498074
          -0.082894 -0.485086 24.836152
          -0.067737 -0.576154 24.789225
          0.632414 -0.051525 24.981172
          5.691125 1.864269 14.893364
          0.057616 0.578834 25.228537
          0.919529 -0.294170 24.848416
          0.006885 -0.279044 24.467066
          -0.063103 -0.365669 25.130939
          0.655958 0.261236 24.903560
          0.470278 0.239572 24.702796
          -0.210054 -0.374788 24.824274
          0.126620 0.003536 25.154325
          -0.034246 0.395652 25.353312
          0.109824 0.137150 24.401968
          -0.252319 0.028037 25.252233
          0.081121 -0.444739 25.279740
          -0.210109 0.374730 24.824417
          0.123403 -0.006684 25.153944
          -0.033989 -0.397220 25.352712
          0.109588 -0.138084 24.403141
          -0.252397 -0.026075 25.251525
          0.081065 0.444777 25.279607
          0.057708 -0.578880 25.227839
          0.919588 0.294204 24.848598
          0.005426 0.278638 24.466968
          -0.063132 0.365711 25.130927
          0.655893 -0.261074 24.903590
          0.469471 -0.239748 24.702934
          5.687926 -1.872902 34.940845
          -0.610672 -0.194698 24.497820
          -0.082922 0.484713 24.835539
          -0.068179 0.576018 24.789140
          0.632206 0.052386 24.981074
          5.671888 -1.858111 14.889540
          -0.000000 2.444713 33.360644
          -0.000119 0.017386 24.133148
          0.001139 0.159926 24.911920
          -0.000082 0.118667 24.355183
          0.000214 0.219129 24.367646
          0.000000 2.444711 16.460088
          -0.000000 -2.203083 22.292437
          -0.000044 -0.253887 24.322446
          0.000005 -0.498623 25.148979
          0.000556 -0.033765 24.427894
          0.000450 -0.237958 25.342338
          0.000000 0.253284 27.567641
          -0.000169 0.525989 24.792754
          -0.000111 -0.117670 24.569918
          0.000520 0.312309 25.005390
          -0.000112 0.521627 24.755859
          -0.000409 -0.249585 25.398457
          -0.000941 0.240154 25.400514
          0.000219 -0.525903 24.792573
          0.000543 0.117371 24.568500
          -0.000495 -0.312392 25.006358
          0.000154 -0.521881 24.755766
          0.000660 0.247859 25.398593
          0.000457 -0.239885 25.400753
          0.000000 2.203083 22.292437
          -0.000177 0.253379 24.320722
          -0.000039 0.498756 25.149778
          -0.000669 0.028586 24.420042
          -0.000650 0.238300 25.342396
          -0.000000 -0.253284 27.567641
          -0.000000 -2.444713 33.360644
          -0.000225 -0.014464 24.127913
          -0.000992 -0.159882 24.911952
          -0.000138 -0.116406 24.354092
          -0.000379 -0.216837 24.363986
          -0.000000 -2.444711 16.460088
          -5.662937 1.858886 34.933310
          0.610440 0.194465 24.498117
          0.082975 -0.485399 24.836132
          0.068032 -0.576141 24.789052
          -0.632013 -0.051128 24.981823
          -5.668728 1.859788 14.887456
          -0.057303 0.579118 25.228041
          -0.919448 -0.294227 24.848473
          -0.006020 -0.279404 24.467297
          0.063136 -0.365536 25.130797
          -0.655819 0.261284 24.903637
          -0.469577 0.239612 24.703317
          0.210072 -0.374881 24.824536
          -0.126151 0.004763 25.153621
          0.033626 0.396909 25.352722
          -0.109841 0.137139 24.401667
          0.252283 0.026688 25.251666
          -0.081238 -0.444496 25.279860
          0.209626 0.375310 24.824351
          -0.123998 -0.002257 25.153841
          0.033934 -0.397007 25.352899
          -0.109774 -0.138129 24.402882
          0.252441 -0.027663 25.252242
          -0.080828 0.445054 25.279498
          -0.057639 -0.578893 25.227745
          -0.919651 0.294174 24.848568
          -0.005775 0.278318 24.466540
          0.063282 0.365769 25.131059
          -0.655989 -0.260888 24.903535
          -0.469711 -0.239610 24.702619
          -5.680608 -1.845613 34.907576
          0.610734 -0.194693 24.497278
          0.082784 0.484986 24.835835
          0.068020 0.575980 24.789113
          -0.630625 0.051748 24.980259
          -5.675690 -1.866395 14.886469
          0.458149 0.249944 24.629669
          0.651047 -0.079378 25.096200
          0.178187 0.121090 24.886505
          0.611169 -0.211571 24.567848
          0.893260 -0.206862 24.719915
          0.164137 0.286565 24.746511
          0.931818 -0.002254 24.689957
          0.933241 -0.271754 24.888166
          0.476510 -0.270538 24.758595
          -0.085945 -0.545792 24.833472
          0.412867 -0.050207 24.710653
          0.599537 -0.263319 24.686351
          0.698232 -0.089668 25.348927
          0.383643 -0.281529 25.235956
          0.595842 -0.035902 24.348730
          0.580349 0.098428 24.957334
          0.658327 -0.123792 25.327255
          0.809504 0.210595 24.977886
          0.697720 0.089948 25.349096
          0.383363 0.281554 25.235825
          0.595874 0.035955 24.348880
          0.579771 -0.097774 24.957081
          0.658060 0.123925 25.327444
          0.809617 -0.210159 24.978320
          0.931680 0.002058 24.689972
          0.933129 0.271849 24.888037
          0.477393 0.270133 24.758837
          -0.085923 0.545914 24.834020
          0.412488 0.049806 24.710371
          0.598274 0.263282 24.686287
          0.461180 -0.249615 24.631067
          0.651269 0.079501 25.096554
          0.178143 -0.120872 24.886675
          0.611107 0.211543 24.568718
          0.893427 0.206724 24.719842
          0.164426 -0.286658 24.746266
          -5.688578 1.862714 34.926902
          0.081709 -0.306936 25.276427
          -0.792501 -0.262209 24.981569
          -0.390403 0.193637 24.671802
          0.656049 0.035382 24.382536
          -5.682901 1.857857 14.893776
          0.190095 -0.071512 24.917448
          0.837226 0.242996 24.742026
          -0.024329 0.225366 24.325408
          0.469217 0.064965 25.397967
          0.154993 0.244640 24.794494
          0.973856 0.060662 24.904035
          -0.793876 -0.151477 25.038098
          -0.112685 0.002065 24.909291
          -0.400172 -0.203503 25.233205
          -0.371008 0.281188 25.296810
          -0.526362 0.015499 24.378136
          -0.620365 -0.023901 24.380123
          -0.793190 0.150220 25.038397
          -0.112084 -0.001969 24.909401
          -0.400206 0.203284 25.232783
          -0.370816 -0.281420 25.297274
          -0.526353 -0.015593 24.378176
          -0.620359 0.023781 24.380070
          0.190189 0.071654 24.917444
          0.836012 -0.242281 24.741974
          -0.023688 -0.227152 24.325037
          0.468998 -0.065059 25.397658
          0.154605 -0.244829 24.794963
          0.973801 -0.061111 24.904195
          -5.670908 -1.875987 34.952636
          0.081612 0.307152 25.275952
          -0.792217 0.261754 24.982269
          -0.390175 -0.193088 24.671834
          0.656087 -0.035515 24.382532
          -5.675939 -1.851250 14.894764
          -0.952723 0.104265 24.762815
          0.277004 -0.247979 25.199277
          0.443896 -0.155224 24.564887
          0.611066 -0.013612 25.404085
          0.647995 -0.290533 24.893623
          0.424702 -0.262750 25.297925
          0.982182 -0.095825 24.852545
          0.411303 0.190234 25.388160
          -0.350091 -0.262321 25.355815
          -1.027809 0.102593 24.798339
          0.027553 0.267507 24.560793
          0.732706 -0.304761 24.933293
          0.716503 -0.082017 25.206191
          -0.729950 -0.114413 25.207075
          0.628044 0.169218 24.820331
          0.409461 -0.229000 24.620070
          -0.725092 -0.044948 24.824187
          0.784029 -0.035347 25.306367
          0.716531 0.081332 25.205949
          -0.730157 0.114232 25.207175
          0.627933 -0.168965 24.820766
          0.409171 0.227051 24.618090
          -0.725034 0.044868 24.823867
          0.783561 0.035663 25.306767
          0.982149 0.096288 24.851996
          0.411263 -0.190247 25.387919
          -0.350064 0.262349 25.356249
          -1.027843 -0.102818 24.798273
          0.027290 -0.268952 24.560842
          0.731537 0.304800 24.932868
          -0.951974 -0.104167 24.762213
          0.277395 0.248394 25.200094
          0.443733 0.155386 24.565266
          0.611267 0.013216 25.404162
          0.648775 0.290813 24.894232
          0.424963 0.262972 25.297716
          -0.144503 0.115876 25.222311
          0.277956 -0.248822 25.273444
          -0.559591 0.238535 24.595060
          -0.894604 0.279205 24.760007
          0.509867 -0.151352 24.850486
          -0.380026 0.319746 25.277158
          -0.070687 0.282040 24.779038
          0.531277 -0.114508 25.298731
          -0.192001 -0.282597 25.409588
          -0.212075 -0.337923 24.805701
          -0.084124 -0.552183 24.860883
          0.009088 -0.033547 24.125355
          -0.304906 0.216986 25.398528
          -0.013454 0.572655 25.127188
          -0.177487 -0.210302 24.871773
          -0.050411 0.540579 25.173039
          0.584280 0.180345 24.491461
          -0.889054 0.313932 24.853597
          -0.304446 -0.217168 25.398094
          -0.013551 -0.572759 25.127563
          -0.177612 0.210497 24.872034
          -0.050364 -0.540306 25.173450
          0.584737 -0.179972 24.490639
          -0.888435 -0.314330 24.854399
          -0.070057 -0.281907 24.778837
          0.530904 0.114927 25.298995
          -0.190675 0.282482 25.410168
          -0.211897 0.337225 24.805891
          -0.083999 0.552148 24.861057
          0.006714 0.034751 24.126997
          -0.143928 -0.115808 25.221793
          0.277808 0.248571 25.272825
          -0.559765 -0.238877 24.594611
          -0.895414 -0.278640 24.760021
          0.508964 0.152218 24.849023
          -0.379541 -0.319906 25.276486
        </DataArray>
      </Points>
      <PointData Scalars="density">
        <DataArray type="Float64" Name="density" format="ascii">
          934.551798
          1111.657794
          964.935108
          844.502638
          940.761888
          906.092682
          1148.989175
          1132.993008
          890.057825
          872.211836
          949.075173
          745.134510
          957.221968
          930.704208
          930.438084
          944.639721
          917.199721
          849.500620
          957.523430
          930.191919
          930.793667
          944.459549
          917.094690
          849.025442
          1148.960830
          1133.068770
          890.521936
          872.601506
          949.727647
          751.857491
          934.991333
          1112.482568
          963.983669
          844.844106
          941.432602
          905.680514
          1028.096668
          984.825088
          940.123234
          1003.995970
          893.911625
          999.224598
          1019.801207
          982.697422
          1010.021730
          885.094080
          896.106388
          895.642000
          1087.111677
          982.628122
          1135.504750
          890.168501
          1136.777676
          885.247941
          1087.896283
          982.581597
          1133.466897
          884.389301
          1136.413873
          885.947297
          1019.995362
          983.103869
          1010.189858
          884.983610
          897.970442
          895.660335
          1028.068545
          985.486648
          938.660506
          1004.102727
          894.496258
          1000.080782
          500.000000
          1175.009454
          921.458696
          939.843168
          872.449073
          500.000000
          866.329897
          989.639964
          952.180342
          992.433730
          983.801110
          946.898230
          1013.552616
          977.800034
          1019.356133
          1016.810302
          911.378331
          924.578781
          1014.245862
          978.881258
          1019.633376
          1017.332317
          911.266187
          924.551400
          866.677083
          992.833619
          950.057783
          992.784937
          984.227750
          947.024688
          500.000000
          1176.627464
          921.453693
          938.201072
          872.422936
          500.000000
          965.746535
          1095.851772
          900.885620
          904.862693
          935.986774
          965.638771
          882.532498
          880.860521
          911.951261
          961.057885
          880.280364
          970.193140
          959.203905
          933.897875
          881.070838
          970.327956
          985.429133
          1052.058037
          959.351986
          933.744579
          881.117428
          970.788517
          985.049621
          1053.004141
          882.888712
          880.685538
          911.700961
          961.029043
          878.581452
          970.952806
          962.142677
          1097.324647
          900.927063
          905.241833
          935.863973
          966.601325
          500.000000
          850.084550
          1087.188746
          884.349565
          1062.781365
          500.000000
          844.208327
          899.655548
          900.654703
          1028.145790
          986.418356
          991.613187
          847.591789
          838.651194
          1046.306847
          905.020179
          931.270198
          1094.732206
          847.301241
          839.985267
          1046.689867
          903.993043
          929.691229
          1094.675392
          844.230897
          899.506976
          899.824509
          1028.468279
          986.460276
          990.347756
          500.000000
          850.271316
          1088.270161
          884.341628
          1062.441099
          500.000000
          500.000000
          773.041447
          1069.431972
          1145.662313
          1007.930302
          500.000000
          500.000000
          858.182698
          1073.526525
          1114.511420
          985.182970
          500.000000
          1057.335877
          861.517838
          962.049252
          994.609762
          886.747482
          820.464358
          1057.181296
          861.937216
          960.762765
          993.879613
          883.976194
          819.530472
          500.000000
          858.307554
          1073.952844
          1126.591327
          985.305487
          500.000000
          500.000000
          762.968479
          1069.003738
          1145.694745
          1009.115535
          500.000000
          500.000000
          851.478156
          1086.992443
          884.234120
          1062.042275
          500.000000
          844.084928
          899.896449
          900.080997
          1028.390440
          987.144603
          990.212657
          847.193935
          839.031257
          1047.065601
          904.855227
          929.922720
          1094.753156
          847.615157
          839.144360
          1046.412907
          903.284773
          931.295577
          1094.854215
          844.291347
          899.294475
          900.396637
          1028.118133
          986.300675
          991.671649
          500.000000
          849.752199
          1087.904278
          884.436800
          1060.083837
          500.000000
          961.044141
          1096.379281
          901.163121
          904.673245
          936.020253
          967.032262
          882.458665
          880.697220
          912.090623
          960.613135
          880.664293
          970.337172
          959.278625
          933.835140
          881.097566
          970.751492
          985.264200
          1052.588757
          959.352868
          933.915066
          881.176806
          969.541493
          985.263594
          1052.428845
          882.812997
          880.881883
          912.977222
          961.217983
          880.373102
          970.816825
          964.726712
          1096.413019
          901.029688
          905.579877
          935.842932
          966.106306
          500.000000
          1176.438776
          921.819949
          937.139157
          872.390216
          500.000000
          866.938127
          990.059333
          953.501780
          992.434780
          984.134438
          947.094102
          1012.974789
          977.760902
          1019.323759
          1017.267573
          911.141204
          924.546206
          1014.365987
          978.709206
          1019.845817
          1016.734531
          911.153978
          924.514607
          866.698101
          992.067341
          947.878763
          992.842423
          984.123186
          947.010115
          500.000000
          1175.241948
          921.150227
          939.759134
          872.481238
          500.000000
          1028.034996
          985.158720
          939.511431
          1004.137096
          894.096142
          999.990518
          1019.751417
          982.884582
          1010.284687
          885.126783
          896.828314
          895.525418
          1087.027508
          982.541171
          1134.412832
          888.180823
          1136.621122
          885.276174
          1088.171768
          982.524573
          1134.256391
          887.983150
          1136.309583
          886.038856
          1020.103236
          982.944317
          1010.009332
          884.932951
          897.912505
          895.716163
          1028.164855
          984.868240
          941.500303
          1003.941924
          893.926698
          999.733297
          935.395884
          1112.807451
          964.488415
          844.370521
          940.470730
          905.983449
          1148.583257
          1133.042187
          890.889018
          872.514593
          948.890810
          744.314676
          957.300497
          930.613561
          931.189029
          944.101498
          917.800506
          849.299019
          957.617097
          930.102036
          930.422311
          944.572568
          916.786511
          849.166182
          1148.612774
          1132.914007
          889.713232
          872.319668
          949.803818
          752.196363
          933.866599
          1111.314936
          963.421541
          844.915497
          941.321399
          905.761922
        </DataArray>
        <DataArray type="Float64" Name="pressure" format="ascii">
          -1963.446068
          3349.733816
          -1051.946764
          -4664.920873
          -1777.143357
          -2817.219529
          4469.675254
          3989.790232
          -3298.265240
          -3833.644908
          -1527.744802
          -7645.964705
          -1283.340971
          -2078.873749
          -2086.857468
          -1660.808374
          -2484.008365
          -4514.981400
          -1274.297096
          -2094.242437
          -2076.189987
          -1666.213527
          -2487.159314
          -4529.236733
          4468.824906
          3992.063110
          -3284.341926
          -3821.954814
          -1508.170593
          -7444.275276
          -1950.260009
          3374.477037
          -1080.489927
          -4654.676817
          -1757.021939
          -2829.584566
          842.900040
          -455.247374
          -1796.302972
          119.879086
          -3182.651262
          -23.262068
          594.036223
          -519.077347
          300.651891
          -3447.177594
          -3116.808367
          -3130.739989
          2613.350324
          -521.156348
          4065.142488
          -3294.944965
          4103.330267
          -3442.561775
          2636.888504
          -522.552098
          4004.006899
          -3468.320968
          4092.416193
          -3421.581077
          599.860854
          -506.883933
          305.695731
          -3450.491695
          -3060.886745
          -3130.189936
          842.056355
          -435.400563
          -1840.184835
          123.081805
          -3165.112260
          2.423460
          -15000.000000
          5250.283613
          -2356.239120
          -1804.704961
          -3826.527806
          -15000.000000
          -4010.103093
          -310.801067
          -1434.589741
          -226.988111
          -485.966700
          -1593.053091
          406.578485
          -665.998981
          580.683992
          504.309063
          -2658.650060
          -2262.636566
          427.375855
          -633.562264
          589.001276
          519.969507
          -2662.014395
          -2263.458006
          -3999.687516
          -214.991439
          -1498.266515
          -216.451887
          -473.167503
          -1589.259350
          -15000.000000
          5298.823927
          -2356.389206
          -1853.967842
          -3827.311912
          -15000.000000
          -1027.603959
          2875.553147
          -2973.431413
          -2854.119220
          -1920.396780
          -1030.836879
          -3524.025074
          -3574.184364
          -2641.462160
          -1168.263446
          -3591.589081
          -894.205802
          -1223.882859
          -1983.063751
          -3567.874873
          -890.161311
          -437.126021
          1561.741117
          -1219.440422
          -1987.662642
          -3566.477146
          -876.344493
          -448.511380
          1590.124238
          -3513.338646
          -3579.433858
          -2648.971170
          -1169.128708
          -3642.556425
          -871.415819
          -1135.719689
          2919.739404
          -2972.188109
          -2842.745017
          -1924.080798
          -1001.960241
          -15000.000000
          -4497.463509
          2615.662374
          -3469.513061
          1883.440941
          -15000.000000
          -4673.750186
          -3010.333554
          -2980.358910
          844.373702
          -407.449319
          -251.604386
          -4572.246339
          -4840.464195
          1389.205423
          -2849.394622
          -2061.894049
          2841.966180
          -4580.962779
          -4800.441982
          1400.696014
          -2880.208720
          -2109.263130
          2840.261749
          -4673.073097
          -3014.790707
          -3005.264734
          854.048368
          -406.191719
          -289.567334
          -15000.000000
          -4491.860510
          2648.104820
          -3469.751171
          1873.232979
          -15000.000000
          -15000.000000
          -6808.756601
          2082.959150
          4369.869379
          237.909070
          -15000.000000
          -15000.000000
          -4254.519066
          2205.795755
          3435.342590
          -444.510898
          -15000.000000
          1720.076314
          -4154.464851
          -1138.522437
          -161.707128
          -3397.575535
          -5386.069260
          1715.438892
          -4141.883517
          -1177.117046
          -183.611623
          -3480.714169
          -5414.085847
          -15000.000000
          -4250.773389
          2218.585317
          3797.739816
          -440.835384
          -15000.000000
          -15000.000000
          -7110.945619
          2070.112145
          4370.842358
          273.466057
          -15000.000000
          -15000.000000
          -4455.655313
          2609.773279
          -3472.976396
          1861.268244
          -15000.000000
          -4677.452171
          -3003.106525
          -2997.570082
          851.713188
          -385.661916
          -293.620293
          -4584.181936
          -4829.062305
          1411.968041
          -2854.343182
          -2102.318396
          2842.594666
          -4571.545276
          -4825.669186
          1392.387219
          -2901.456808
          -2061.132683
          2845.626449
          -4671.259575
          -3021.165744
          -2988.100878
          843.543986
          -410.979744
          -249.850538
          -15000.000000
          -4507.434041