<?xml version="1.0"?>
<VTKFile type="PolyData" version="0.1" byte_order="LittleEndian" header_type="UInt32" compressor="vtkZLibDataCompressor">
  <PolyData>
    <Piece NumberOfPoints="686" NumberOfVerts="686" NumberOfLines="0" NumberOfStrips="0" NumberOfPolys="0">
      <PointData>
        <DataArray type="Float64" Name="density" format="ascii" RangeMin="573.1052098747691" RangeMax="1150.6475081688448">
          1000.2108645990074 1006.5625013899032 1068.5244213786457 988.0047903077303 996.5996234842672 984.6446469387947
          1012.9331047726884 1015.8880444289141 1014.0526071172624 988.8528984593285 1002.7999799743999 1046.237779919344
          998.9686252683894 1001.8093724548954 998.6524578853922 957.6180799809706 1016.998621305497 989.5532490461745
          969.6807438981084 1028.0414362451284 997.9360048641704 990.6790120719401 1000.1400273912632 1006.3367568137354
          956.9041962934268 979.7383155853912 1008.546622099546 1012.7716156418894 1006.8805533831539 1015.9341383013833
          997.3574142762119 994.6325784480679 1013.4783877012343 948.2717036721049 1000.3313444299197 999.0299382650352
          978.674840710643 988.2362333153859 1002.6272418647933 961.2321267865335 999.0989903152139 1000.8696735964137
          976.8637381229852 984.8551179544739 1015.156214695568 877.8958838591308 975.4011736560526 1009.4555284541688
          1006.120271941821 1000.7993284679791 1016.7462819277131 612.192362659799 967.4871176524578 612.413932518191
          1006.3705231780174 1005.775902097583 997.4756034036029 1000.2386221794578 991.9377142458333 1043.515867514654
          988.269406278396 1007.7500241833952 984.66244224639 590.9256873628099 988.9982828417209 1000.5967742536051
          615.7026470798269 1001.933011841282 994.7688967907759 590.9040280992691 1007.533620399703 1001.7199542852843
          573.2030416757576 1000.654315927007 573.1533450266566 1043.4968468278496 1000.0986457247287 590.9256873449001
          991.196745531184 1000.6007326215222 573.1052098747691 1001.9322138436405 963.604753686202 590.9040280980862
          998.9563078124282 1000.6459094773314 1017.315585015725 1009.45234120685 948.2174433470179 1012.5423892745414
          1003.1782289546645 1004.4049047305114 1024.8106133978497 590.8950216545069 1018.0425398780217 590.8808272076806
          1005.8340127749221 1014.4061586895027 1007.6531637982827 1027.5660485211945 999.967465009333 829.1477644243352
          982.0417104334309 1021.3229871521964 977.6526430647244 998.1727983459153 827.3817171317744 987.5826896972522
          999.6740575536714 951.9108249552377 996.5665290573575 925.1882271540436 985.538943113827 1018.7528389751553
          969.2916203577163 997.9907970724527 1020.0085995042008 1005.6649890741226 1021.8329071992232 827.9852160918739
          992.1493181975138 1030.4109284069148 997.7072184248129 998.8499849271398 999.6093986751414 823.003345376574
          986.3720351038028 1002.4845174111571 1016.3599885882898 1040.179707564251 1013.3082278542348 999.5537955839545
          955.2655138452891 1000.852873629667 828.6983721616976 968.2346584023834 978.7479019228127 1006.0194808846935
          1007.2270269791768 1038.2175878410894 976.8758669986103 969.2697426143114 999.5018796035413 830.1784856226699
          993.1846895096307 995.8888871135828 1025.3189908347535 999.5162548343193 996.4934580877703 829.3662498020487
          1004.2215094906782 829.8365274915626 1014.6459623109408 1009.6676787451266 1001.9251451280362 1005.3370616947612
          988.018222432867 941.9549225165749 1001.547341013094 1001.9574309089766 1005.1030581528465 826.3551267028032
          1005.7424668420747 828.863219823181 1016.3235384454287 1001.2187011879621 1009.0699517504838 818.4424546165653
          983.1365247549941 1014.3733308287107 1007.3689780634567 978.5115198001345 999.6796227385652 974.6162967572084
          948.8459291452758 829.8617517967554 996.1749347055973 827.8894514733241 1010.4663809636652 1020.4080719726666
          1009.0718358112243 826.887976182295 1002.3927120091212 1005.9305755479808 995.5143887546689 1033.3672021895475
          1001.5484204713689 1008.7498172717851 1011.1536252919907 992.1830000619735 995.6336183632243 829.6382073425497
          998.7617357284976 827.1348467849144 999.2265217068349 995.9797776080183 995.1418655743107 1003.1188206946557
          1004.2515851310063 830.5451372586574 990.4388574094921 1003.160974804611 993.9935653595683 998.0829911016293
          1089.1431084800536 996.7182657876219 997.6589919391955 974.6224754907571 991.5476382110502 1001.7262061474962
          1001.5758056428152 985.3384373940047 987.0154322581352 990.6175439186862 1007.1582983499472 999.7542253468273
          983.9687917036409 829.6501936457926 999.6921949653021 995.0181902283825 972.8023773276855 1024.2551713819435
          999.8814479771465 821.1258731160742 1001.8111565467725 959.5808327816999 1014.7332208141977 1077.2287870816306
          998.0175883868793 1012.8578517674348 995.2507624090568 1002.1521991981997 963.9806935687408 1043.5499559520688
          1016.7288977428507 899.138787866757 1005.3251215037715 1001.7267501865007 1011.3732209178422 995.9443482136002
          1004.2546736351419 828.0917755182081 1007.3997986665413 1003.1618099514466 1009.1451730653421 1044.8986721401243
          827.5311399939999 1001.0726485905593 1006.5833373044186 1007.6870461985027 996.5716546671988 959.5107824281148
          826.8305287200584 1002.3670218551146 1005.9519494524571 1009.0257739252552 992.8408211259148 1008.7695272491856
          1009.5258061694975 995.961225656727 1012.4019480120412 996.7644344406597 998.1951209245116 1003.3647485495536
          992.744153164491 993.6815271749219 1006.3513147934531 994.0559957432073 1005.9452601601357 995.8290004121134
          977.3280569618875 1022.691355257999 1000.326322824685 1000.6335320181458 1014.5648028752033 999.5737420407485
          1006.2641612204471 992.9788110186755 1003.4404776442 996.9188232501975 827.6287862283172 1011.1239239781896
          973.993545015254 1000.1255044693761 1006.2747425052462 1007.0643103007118 1003.3722043565949 983.3078729449576
          825.7362757718236 1007.202781301424 994.868340921099 993.5243152317342 1005.4996567803745 992.253707191391
          1000.6874336332352 1012.5879257468804 1001.833834069062 999.8225773269517 1000.1809677326016 1006.4984748916328
          1033.7782754634109 992.1887092396504 996.8194122552559 1006.6126189042203 972.6722571926279 995.1212872844638
          952.5852362905455 990.2341800708326 998.018091376023 999.4325595488192 1025.9862583691322 949.0201129255428
          1012.0782155054068 1003.8745075565047 1005.6970306687026 1008.890108592897 1008.6085459008095 984.2725000879179
          1009.2966004966105 988.255461289069 1018.7369804698668 1011.8660865738917 999.0916681153403 993.7568258551443
          949.3006026230117 1016.2409542494181 1001.6396166777035 1003.8757931736881 975.6028719893401 999.5587848553466
          1041.7966799047053 1005.8783964300957 1003.7715672278382 995.120006005606 998.9950001102108 1001.7074978783818
          962.945814850544 993.7661911443529 989.6883619118764 992.5833506189454 989.1302224372035 1002.027920682105
          1039.9653077139772 1004.641496671499 997.0887143357406 1009.3579122846286 990.4343531118196 1005.244546638153
          993.9727600219744 975.7841007682999 991.1774887274331 964.7108585860017 1008.1398811095073 1018.8249248818917
          995.1221158607068 958.6147647472949 1003.7406953622485 1001.422413510346 996.5086700433945 1007.7915418638762
          1025.0189614727885 1003.6915359433605 1003.8749592528699 982.8219301659269 1000.0894542354716 1012.3820534103936
          970.3927063883681 998.8425810819595 967.4621532963799 959.8472099834555 1005.0010375187289 998.159103279002
          993.5135010318563 1028.522208859932 1031.140544904419 995.0635427496582 1003.8757246987996 996.0091922420236
          1020.8825183387517 1021.0138513666806 1005.8020629259923 1009.2922832761652 995.1208081012911 932.5632326244987
          1004.7780756155494 1007.4393477644425 968.4544557423453 1000.8651582867094 999.7380117632104 996.9822658944568
          1006.8307781512508 972.6198431199585 934.6515660726102 818.0473846032388 1020.6877215360154 990.7314799718582
          984.508789951041 997.202856463409 1043.7131002901149 822.2609470869764 1000.957554961942 1023.5360255229651
          1008.9811732699151 1004.7837456246564 1001.179482623968 984.9307549229649 1000.7819355282269 996.7306251949074
          1002.7084380799788 986.8276817187182 1017.0506235508213 992.8840181997143 1024.3188681903373 1020.9597045807324
          986.6602979326834 999.9343992964858 982.5420662217119 1025.4612752113023 972.6382329047324 996.2559904910732
          1000.1142458740163 953.9886375085778 981.5088552849401 1046.2937631841785 1002.1324768113063 993.8396699100433
          986.3420964795978 816.8431353809588 1016.2386400996313 1031.4303456527123 1005.6200742454982 1007.210651288445
          1007.4169033094576 1018.7934395851644 1036.2194857967133 818.1981164172776 989.8873795497676 994.6181142444641
          1003.9418364386829 989.040854488536 978.069598173605 978.6199749889547 1011.8119710263961 1004.2534529329835
          827.1904486679405 990.8146973520073 1003.1618780268245 1014.164930688195 1007.2301448398459 1000.7722231508922
          973.7139588824376 995.2271684512214 1033.625671076573 1001.2663935194616 1001.7319991144434 1001.801672999424
          1061.8383463750163 1007.0539851726058 960.3447748350094 995.0727558130545 957.343253900451 991.8658419293068
          823.9469698966999 1004.1268970946462 1004.3383311687703 946.8871002664288 1015.9871158300986 998.6830359917712
          771.9862846878478 1001.8060211835443 976.9628683093059 996.7575857423099 998.5445033282109 997.6901461196818
          1028.0470890133051 1016.5587517312729 1002.5845374085586 988.0923011932628 1050.67210031429 994.8538651346295
          993.1332293507074 989.6135393134223 1001.7319462619917 995.8529280598817 995.7662387323488 1004.254052585288
          828.6187391188262 990.5110829011433 1003.1624426089627 1004.2720404048547 998.2809494653126 995.6575578088726
          824.8933204857121 1001.0055562660392 818.9951294602084 987.8789769367735 993.7941577051741 1002.3770796281611
          1014.8171331283578 988.5340898737938 1008.0901372887085 1001.5497640814001 1007.3838378124921 1006.5046878001921
          814.4830630692788 1005.1925742706575 820.7561415462507 1007.9562524793076 995.013466766877 1009.0660608615082
          814.4161310409341 997.2443774390301 1002.5898322591888 1004.4855975040766 943.4391378564113 1009.3028177221629
          1001.337606700741 997.3778521654586 824.55338044721 994.9764032520811 815.5006962843352 1009.8451813963858
          1008.6666652367096 1009.0687102626911 807.3537525193109 1002.3833099302501 973.8862882480934 996.0722161436173
          1150.6475081688448 1001.5508437469801 1008.9023476347107 997.8540393733031 998.8806107671685 995.6472130694293
          828.808514831516 978.9778366229024 829.8348405277368 1009.4051477496456 1008.782240273235 1009.7539621627285
          1026.3261179065682 1003.7788478945787 826.0449218865392 991.4963037723712 988.7512643522939 970.4888483393572
          987.4652126465928 813.3893193368667 988.8786419984542 1009.7920400231696 983.7964536496063 998.7351524721151
          965.4857970409008 963.1559237406644 999.5175454014202 1005.913945969403 982.065352631373 1037.629276661112
          994.9714456213053 1041.4590397830725 823.7547616211258 934.2593352295 987.8434570872906 987.3856949742404
          1009.7689255612233 1000.7627753711715 809.8742529878941 1040.4297800219183 970.63041897822 988.9597454706014
          986.7217865088496 988.7728840888713 1007.3287225706682 999.9910588215163 1002.664156272845 790.8409845363983
          998.8944541583643 945.5694090471999 995.543791021903 991.0677655491246 1065.280848675969 963.1981961011975
          1023.2901894850916 987.6950069522964 830.0753478126231 1002.1237723250186 1032.0206333736464 977.6552300370556
          1003.0841192348444 1041.7665234240892 605.6845362583246 966.8917832827307 606.0162535821039 984.1205200453193
          1003.0952551822165 1012.455801812937 1000.6289662496562 1022.893324342885 1005.776127102663 983.0480284766384
          981.2271263238491 1020.6102705282137 591.4327513901343 993.7878387465033 1000.7799154130253 614.6316126716999
          1006.6522190147948 944.8022114007775 591.4141262383965 985.7007252479942 1013.0857352416921 573.9992250609288
          999.3108576607466 573.9333878981892 1049.6063854514045 1004.512645633879 591.432751385337 994.8535368873851
          1000.9934412062241 573.8683967423875 1007.1537395069005 994.2653429163597 591.4141262377259 1005.5745939192278
          1000.6373490764782 999.0038996398683 1000.2875028969759 959.4276552664084 994.4576993756582 1017.5666675098884
          1016.3281146351381 982.9178530866294 591.3922300022376 990.7233520721427 591.380420149049 1002.189560930846
          1000.0807368407405 969.6579818829304 965.4485754940955 1021.174650482788 1040.9634840334522 969.6343405013663
          972.5762038007095 999.1064214813904 1014.4978423396329 943.1111391363734 987.9691069325362 1020.9944003066304
          984.0253248396912 1026.8138610570666 1002.6491896379463 1003.8864590550095 952.6267544349017 989.3286789528894
          1007.3575403101347 968.4602687690355 1002.795611641413 999.4070927793175 1030.9430545338375 989.8586027809042
          1036.840119115347 964.7364929866659 961.8243805998793 990.9996265226051 993.7558115166563 966.5940727431154
          964.2122595443527 969.3136243503246 972.7359883663697 1014.8578409397275 978.5006230882146 998.9294282346756
          1031.8000358391337 958.7576143735081 1033.6576692865417 981.7539855997492 1003.1021912043045 1046.703472032123
          1001.4627697096023 1010.7685098883486 993.2478307804743 980.5010169294618 1001.6597283310949 992.0454950593263
          982.3210385803663 995.7652092288141
        </DataArray>
        <DataArray type="Float64" Name="pressure" format="ascii" RangeMin="-51227.37481502771" RangeMax="18077.70098026137">
          25.303751880892378 787.5001667883862 8222.930565437482 -1439.4251630723602 -408.0451818879328 -1842.6423673446334
          1551.9725727226023 1906.565331469692 1686.3128540714843 -1337.652184880585 335.9975969279867 5548.533590321267
          -123.76496779327681 217.1246945874509 -161.70505375293487 -5085.830402283527 2039.8345566596345 -1253.6101144590566
          -3638.3107322269916 3364.9723494154023 -247.67941629955203 -1118.5185513671922 16.803286951580958 760.4108176482487
          -5171.496444788781 -2431.4021297530553 1025.5946519455165 1532.5938770267294 825.6664059784725 1912.0965961659977
          -317.1102868545722 -644.090586231855 1617.406524148114 -6207.395559347415 39.761331590361806 -116.40740819577786
          -2559.019114722837 -1411.6520021536917 315.2690237751949 -4652.144785615978 -108.12116217433413 104.36083156964287
          -2776.351425241778 -1817.3858454631272 1818.7457634681596 -14652.493936904306 -2951.8591612736873 1134.6634145002508
          734.4326330185186 95.91941615748965 2009.5538313255702 -46536.916480824126 -3901.5458817050694 -46510.32809781708
          764.4627813620855 693.1082517099549 -302.92759156764987 28.63466153493846 -967.4742905000085 5221.904101758482
          -1407.671246592481 930.0029020074271 -1840.5069304331982 -49088.91751646282 -1320.2060589934945 71.61291043260917
          -46115.68235042077 231.96142095383948 -627.7323851068923 -49091.51662808771 904.0344479643545 206.3945142341163
          -51215.63499890909 78.5179112408423 -51221.59859680121 5219.621619341951 11.837486967447148 -49088.91751861199
          -1056.3905362579226 72.08791458266205 -51227.37481502771 231.86566123686134 -4367.42955765576 -49091.516628229656
          -125.24306250861173 77.5091372797715 2077.870201886999 1134.2809448219941 -6213.906798357848 1505.086712944967
          381.38747455974226 528.5885676613634 2977.273607741963 -49092.59740145918 2165.1047853626005 -49094.30073507833
          700.0815329906573 1728.739042740326 918.3796557939195 3307.9258225433387 -3.904198880045442 -20502.26826907978
          -2154.9947479882894 2558.7584582635736 -2681.6828322330684 -219.2641984901593 -20714.19394418707 -1490.07723632973
          -39.11309355942649 -5770.701005371479 -412.0165131171052 -8977.412741514767 -1735.3268263407563 2250.3406770186393
          -3685.005557074046 -241.1043513056802 2401.0319405040946 679.7986888947071 2619.948863906784 -20641.774068975134
          -942.0818162983414 3649.3114088297716 -275.1337890224477 -138.00180874322905 -46.87215898303293 -21239.598554811124
          -1635.3557875436672 298.14208933884856 1963.1986305947703 4821.564907710117 1596.9873425081778 -53.54452992545703
          -5368.138338565309 102.34483556003852 -20556.19534059628 -3811.8409917139934 -2550.2517692624724 722.3377061632209
          867.2432375012158 4586.110540930731 -2774.8959601667684 -3687.630886282627 -59.774447575046 -20378.581725279615
          -817.8372588443108 -493.3335463700678 3038.278900170426 -58.049419881685935 -420.78502946757 -20476.05002375415
          506.58113888137905 -20419.61670101249 1757.5154773128997 1160.1214494151964 231.01741536434474 640.4474033713495
          -1437.813308055961 -6965.409298011009 185.68092157127467 234.89170907718744 612.3669783415835 -20837.384795663616
          689.0960210489629 -20536.41362121828 1958.8246134514384 146.24414255545162 1088.394210058059 -21786.905446012162
          -2023.6170294007115 1724.7996994452797 884.2773676147999 -2578.617623983864 -38.44527137217938 -3046.044389134995
          -6138.488502566902 -20416.589784389358 -459.00783532832975 -20653.265823201105 1255.9657156398225 2448.9686367199874
          1088.6202973469199 -20773.4428581246 287.1254410945403 711.6690657576919 -538.2733494397371 4004.0642627456964
          185.81045656426795 1049.9780726142126 1338.4350350388831 -938.0399925631764 -523.9657964130856 -20443.41511889404
          -148.59171258029164 -20743.818385810268 -92.8173951798135 -482.42668703780964 -582.9761310827143 374.2584833586852
          510.1902157207587 -20334.583528961113 -1147.3371108609444 379.31697655331845 -720.7721568518082 -230.04106780448183
          10697.173017606428 -393.8081054853683 -280.92096729653804 -3045.3029411091484 -1014.2834146739779 207.14473769954566
          189.0966771378271 -1759.387512719436 -1558.1481290237753 -1125.8947297576515 858.9958019936694 -29.492958380724303
          -1923.7449955630882 -20441.97676250489 -36.936604163752236 -597.8171725940956 -3263.7147206777445 2910.6205658332146
          -14.226242742415707 -21464.895226071094 217.33878561270103 -4850.300066196014 1767.9864977037232 9267.454449795669
          -237.8893935744827 1542.9422120921754 -569.9085109131784 258.26390378396354 -4322.316771751107 5225.994714248254
          2007.4677291420812 -12103.345455989165 639.0145804525764 207.21002238008168 1364.7865101410662 -486.6782143679802
          510.5608362170278 -20628.986937815025 887.9758399849561 379.41719417358854 1097.4207678410494 5387.840656814915
          -20696.263200720015 128.7178308671173 790.000476530231 922.4455438203222 -411.401439936144 -4858.706108626225
          -20780.33655359299 284.04262261374697 714.2339342948571 1083.0928710306216 -859.1014648902274 1052.343269902267
          1143.0967403397017 -484.65292119275546 1488.2337614449443 -388.2678671208396 -216.58548905861153 403.76982594643323
          -870.7016202610839 -758.2167390093673 762.1577752143685 -713.2805108151251 713.4312192162861 -500.5199505463952
          -2720.6331645735054 2722.9626309598825 39.158738962200914 76.02384217750114 1747.7763450243992 -51.15095511018353
          751.6993464536563 -842.5426777589382 412.85731730399675 -369.741209976296 -20684.54565260194 1334.8708773827548
          -3120.7745981695234 15.06053632513158 752.9691006295434 847.7172360854138 404.6645227913905 -2003.0552466050904
          -20911.646907381175 864.3337561708813 -615.7990894681143 -777.0821721918901 659.9588136449393 -929.555137033085
          82.49203598822078 1510.5510896256465 220.06008828744598 -21.29072076580087 21.71612791219559 779.8169869959338
          4053.3930556093037 -937.3548912419528 -381.67052936929394 793.5142685064375 -3279.3291368846576 -585.4455258643384
          -5689.771645134542 -1171.8983915000854 -237.8290348772407 -68.09285414169608 3118.351004295864 -6117.586448934867
          1449.385860648813 464.9409067805618 683.6436802443131 1066.8130311476443 1033.0255080971438 -1887.299989449848
          1115.5920595932594 -1409.3446453117213 2248.437656384017 1423.9303888670065 -108.99982615916088 -749.1808973826892
          -6083.927685238591 1948.9145099301732 196.7540013244252 465.09518084256797 -2927.6553612791895 -52.94581735840438
          5015.601588564641 705.4075716114812 452.58806734058453 -585.5992793272799 -120.59998677470958 204.89974540581443
          -4446.502217934717 -748.0570626776534 -1237.3965705748287 -889.9979257265568 -1304.373307535575 243.35048185259893
          4795.8369256772585 556.9796005798798 -349.35427971112404 1122.94947415543 -1147.877626581644 629.3455965783596
          -723.2687973630709 -2905.9079078040077 -1058.7013527080262 -4234.696969679799 976.7857331408777 2258.9909858269993
          -585.3460967151841 -4966.228230324614 448.88344346982194 170.68962124152222 -418.95959479265457 934.9850236651446
          3002.275376734624 442.9843132032556 464.99511034438456 -2061.36838008877 10.7345082565962 1485.8464092472332
          -3552.87523339583 -138.8902701648658 -3904.5416044344074 -4818.334801985338 600.1245022474723 -220.9076065197587
          -778.3798761772414 3422.665063191853 3736.8653885302683 -592.3748700410215 465.08696385594703 -478.8969309571712
          2505.902200650198 2521.6621640016683 696.2475511190814 1115.0739931398266 -585.5030278450658 -8092.412085060155
          573.3690738659243 892.7217317330951 -3785.465310918562 103.81899440512825 -31.43858841475776 -362.1280926651889
          819.6933781500957 -3285.6188256049745 -7841.812071286777 -21834.31384761134 2482.526584321845 -1112.2224033770135
          -1858.945205875084 -335.65722439091587 5245.572034813786 -21328.686349562828 114.90659543304446 2824.323062755816
          1077.740792389809 574.0494749587651 141.53791487616672 -1808.309409244216 93.8322633872258 -392.32497661111665
          325.0125695974566 -1580.6781937538199 2046.074826098561 -853.9178160342817 2918.2641828404758 2515.1645496878837
          -1600.7642480779896 -7.872084421701402 -2094.952053394568 3055.3530253562803 -3283.412051432115 -449.2811410712102
          13.70950488195831 -5521.363498970668 -2218.937365807192 5555.2515821014185 255.89721735675994 -739.2396107948025
          -1638.9484224482658 -21978.82375428495 1948.6368119557574 3771.641478325473 674.4089094597894 865.2781546133974
          890.0283971349063 2255.2127502197254 4346.338295605601 -21816.226029926693 -1213.5144540278861 -645.8262906643085
          473.0203726419495 -1315.0974613756853 -2631.648219167405 -2565.603001325435 1417.4365231675347 510.4143519580157
          -20737.146159847143 -1102.2363177591205 379.42536321894295 1699.7916825834 867.6173807815121 92.66677810705914
          -3154.324934107485 -572.7397858534368 4035.080529188772 151.9672223353973 207.83989373320765 216.20075993087994
          7420.601565001953 846.4782207127018 -4758.627019798873 -591.2693024334567 -5118.809531945876 -976.0989684831793
          -21126.363612396013 495.22765135754526 520.5997402524372 -6373.547968028547 1918.4538996118272 -158.03568098745018
          -27361.645837458258 216.72254202531803 -2764.45580288329 -389.0897109228172 -174.65960061469104 -277.1824656381841
          3365.650681596617 1987.0502077527453 310.14448902703407 -1428.9238568084693 6080.652037714799 -617.5361838444633
          -824.0124779151074 -1246.3752823893265 207.83355143899826 -497.64863281419366 -508.05135211814104 510.48631023456437
          -20565.751305740858 -1138.6700518628095 379.49311307552307 512.6448485825631 -206.28606416249113 -521.0930629352833
          -21012.801541714543 120.66675192470484 -21720.584464774987 -1454.522767587182 -744.7010753791028 285.2495553793369
          1778.0559754029355 -1375.9092151447385 970.8164746450257 185.97168976801186 886.0605374990473 780.5625360230488
          -22262.032431686537 623.1089124788969 -21509.26301444992 954.7502975169164 -598.3839879747666 1087.9273033809795
          -22270.0642750879 -330.67470731638423 310.77987110265894 538.2717004891947 -6787.3034572306415 1116.338126659548
          160.5128040889258 -314.6577401449622 -21053.5943463348 -602.8316097502648 -22139.916445879782 1181.421767566294
          1039.9998284051526 1088.2452315229284 -23117.549697682694 285.9971916300128 -3133.645410228796 -471.3340627659227
          18077.70098026137 186.1012496376179 1068.2817161652883 -257.515275203632 -134.32670793978104 -522.3344316684825
          -20542.978220218072 -2522.659605251715 -20419.819136671584 1128.6177299574729 1053.8688327881937 1170.4754595274198
          3159.134148788189 453.4617473494427 -20874.609373615294 -1020.4435473154535 -1349.8482777247318 -3541.3381992771338
          -1504.1744824088619 -22393.281679575994 -1334.5629601854944 1175.0448027803577 -1944.425562047245 -151.78170334618244
          -4141.704355091902 -4421.289151120268 -57.89455182957681 709.673516328362 -2152.1576842352397 4515.513199333445
          -603.4265254433649 4975.0847739687015 -21149.428605464906 -7888.879772459995 -1458.7851495251243 -1513.7166030911476
          1172.271067346801 91.53304454058343 -22815.089641452705 4851.573602630197 -3524.349722613606 -1324.830543527828
          -1593.3856189380458 -1347.2539093354499 879.4467084801863 -1.0729414180468666 319.69875274140577 -25099.081855632205
          -132.66550099628603 -6531.670914336014 -534.7450773716446 -1071.8681341050478 7833.70184111629 -4416.216467856302
          2794.822738210987 -1476.5991657244376 -20390.958262485223 254.8526790022379 3842.476004837572 -2681.372395553326
          370.09430818132387 5011.982810890704 -47317.85564900105 -3972.9860060723195 -47278.04957014753 -1905.537594561688
          371.430621865984 1494.6962175524413 75.47594995874078 2747.198921146196 693.1352523195665 -2034.2365828033962
          -2252.7448411381056 2473.232463385648 -49028.06983318389 -745.4593504196009 93.58984956303175 -46244.20647939601
          798.2662817753771 -6623.7346319066955 -49030.304851392415 -1715.9129702406926 1570.2882290030493 -51120.092992688544
          -82.69708071040895 -51127.9934522173 5952.766254168546 541.5174760654736 -49028.06983375955 -617.5755735137909
          119.21294474689603 -51135.7923909135 858.4487408280575 -688.1588500368343 -49030.304851472894 668.9512703073387
          76.48188917738935 -119.5320432157996 34.500347637103914 -4868.681368030998 -665.0760749210167 2108.0001011866034
          1959.373756216578 -2049.857629604471 -49032.932399731486 -1113.1977513428774 -49034.349582114126 262.74731170152336
          9.68842088886504 -3641.042174048357 -4146.170940708539 2540.958057934563 4915.618084014268 -3643.8791398360445
          -3290.855543914854 -107.22942223315385 1739.7410807559527 -6826.663303635196 -1443.707168095657 2519.328036795646
          -1916.96101923706 3217.6633268479873 317.90275655355344 466.3750866011378 -5684.789467811793 -1280.5585256532731
          882.9048372161651 -3784.767747715746 335.4733969695553 -71.14886648189895 3713.1665440605047 -1216.9676662914935
          4420.8142938416495 -4231.620841600093 -4581.074328014483 -1080.0448172873848 -749.302618001243 -4008.7112708261566
          -4294.528854677674 -3682.3650779610443 -3271.681396035633 1782.9409127672943 -2579.9252294142434 -128.46861183892997
          3816.0043006960404 -4949.086275179029 4038.9203143850045 -2189.5217280300994 372.2629445165421 5604.416643854765
          175.53236515227582 1292.2211866018324 -810.2603063430888 -2339.8779684645842 199.16739973139101 -954.5405928808441
          -2121.475370356038 -508.1748925423062
        </DataArray>
        <DataArray type="Float64" Name="velocity" NumberOfComponents="3" format="ascii" RangeMin="16.911832979025558" RangeMax="35.952607524471254">
          0.03949416902088691 0.01053200913397042 -25.881863145077997 0.4863297238149681 0.01840551668819715 -26.10085027672498
          0.31408908197823154 0.06126496790111559 -25.64311263345398 0.12476885756868825 -0.20568462766382753 -25.909634801445037
          -0.018591125223265836 -0.17304460264624102 -25.7722219379311 0.12763459546814562 -0.286717351178737 -26.13367019289712
          -0.2455527018315275 -0.1276837498440332 -25.7002490981208 0.27709778455775674 -0.08754930528547955 -25.57176269639153
          0.0011998711670769095 0.3296115836962482 -26.199829700845545 -0.15080258493632392 -0.05894510108880292 -26.077271527763852
          -0.0787239710125185 0.06143492016850203 -26.01792802027366 0.15677906514391896 0.394916896630788 -26.54271787149784
          -0.04012021290422042 0.08554854186861574 -25.932233226145808 -0.29047623219136154 0.09845858615622526 -25.418517655039626
          -0.014702969263441765 0.039411573722287714 -25.700886941302393 -0.7702456591247357 -0.29163300425865346 -26.54915391966634
          -0.03630895274642314 0.08598629490245895 -25.955923499977114 -0.37700999782294203 -0.047036821382228866 -25.90377120446178
          -0.059806767229739585 0.03769628697094747 -25.64397140112742 -0.5862841213409891 -0.04557659923042948 -25.841437917891433