<?xml version="1.0"?>
<VTKFile type="PolyData" version="0.1" byte_order="LittleEndian">
  <PolyData>
    <Piece NumberOfPoints="396" NumberOfVerts="396" NumberOfLines="0" NumberOfStrips="0" NumberOfPolys="0">
      <Points>
        <DataArray type="Float64" NumberOfComponents="3" format="ascii">
          0.125705 0.285535 6.936774
          -0.229865 -0.205515 6.731999
          -0.003208 -0.315676 6.642289
          0.667822 0.959943 1.825201
          -0.199114 -0.377271 1.824518
          0.643605 0.559602 6.621306
          0.703301 1.011618 1.813794
          -0.390120 -1.029637 6.344517
          0.309552 0.051260 6.690521
          1.021457 -0.264128 1.823292
          -0.110119 -0.703456 1.819077
          -0.112333 -0.439848 6.797970
          -0.098158 1.334948 6.703295
          -0.400027 0.159753 6.726570
          -0.126808 -0.445849 1.824518
          -0.039586 1.532117 6.619187
          -0.543209 0.192035 6.815175
          1.204186 -0.032379 1.824518
          -0.351632 -0.885487 6.463137
          -0.987913 0.337479 6.598439
          -0.593298 1.017060 1.805869
          -0.413205 -1.003750 6.406065
          0.326135 0.276329 6.951772
          1.192199 -0.021036 1.824518
          0.046560 -0.628325 1.818238
          -0.045236 1.338549 6.708840
          0.483126 0.106130 6.383834
          -0.068819 0.020996 1.817055
          -0.798692 0.901804 1.845584
          -0.147853 -0.205023 6.878043
          -0.007718 -0.469383 1.808938
          -0.429818 -0.155945 6.720698
          0.006373 -0.310584 6.615701
          0.331627 -0.805315 1.810552
          -0.649378 0.622882 1.828661
          0.682518 -0.926654 6.632888
          1.053920 -0.271642 1.818726
          -0.954057 0.290604 6.661141
          -0.000786 -0.274241 6.866502
          -0.839659 0.495698 6.620978
          -0.446394 -1.128713 6.709116
          -0.504526 -1.199824 6.637913
          -1.189982 0.057592 1.823555
          -0.021370 -0.297311 6.967015
          0.580889 -1.253972 6.683810
          0.997000 -0.330736 1.817149
          0.010546 0.241052 6.925209
          -0.549858 -1.215752 6.719978
          -0.517722 -0.928257 6.535711
          0.688601 0.360640 6.579247
          -0.596557 0.887227 1.847066
          -1.115083 -0.407348 1.824518
          0.642138 0.075335 6.823405
          -0.627409 0.140950 6.472659
          -0.886717 0.265100 6.571003
          -0.241599 0.254333 6.973172
          -0.630675 -1.265493 6.550324
          -0.424486 0.773084 1.844674
          0.446409 0.057161 6.429718
          0.462931 0.077077 6.968744
          -1.168727 -0.186069 1.825917
          0.124678 -0.160615 6.652824
          0.168884 0.862377 6.615280
          1.273526 -0.072157 1.819827
          -0.092029 -0.452271 6.826197
          -0.803830 0.394848 6.684375
          1.149522 0.042224 1.807330
          -0.574868 0.077698 6.874623
          -0.010641 -0.436159 6.776282
          -0.315552 -1.178579 6.673098
          -0.988719 0.484910 6.657704
          -0.021302 1.474406 6.519067
          5.355398 -0.456850 0.796153
          0.236302 0.320499 6.716079
          1.038691 -0.252198 1.826026
          1.177738 0.017437 1.808705
          -1.076783 -0.038590 1.825925
          4.537998 -0.193092 6.132819
          0.227312 0.187608 6.617735
          -0.619073 0.022895 6.550589
          0.004503 0.233617 6.934782
          -0.866813 0.280387 6.401099
          -0.512351 0.719903 1.812604
          -0.870198 0.326580 6.465631
          0.347966 0.183012 6.396267
          0.296614 -0.589739 1.815596
          0.487371 -1.115157 6.805637
          0.399063 0.981155 6.673529
          0.250889 0.103154 7.065923
          -0.511186 0.780313 1.831727
          0.474681 0.947367 6.685413
          0.527953 1.101154 1.743849
          0.424571 0.888789 6.651018
          0.767207 -1.207938 6.682149
          0.001529 0.153777 6.785956
          -0.485005 -0.982128 6.549612
          0.291942 0.191268 6.449746
          -0.637966 -1.308719 6.565751
          -0.420667 -0.110688 6.736594
          0.526924 -0.067316 6.760536
          0.082535 -0.632749 1.820861
          -0.578601 -1.113903 6.478030
          4.317049 0.424379 0.784691
          -0.031479 1.558846 6.602546
          1.243586 -0.019043 1.824901
          1.000756 -0.342584 1.824981
          -0.485975 0.986512 1.840189
          4.593332 0.008439 6.131130
          0.040708 -0.450775 6.796037
          -0.719841 -1.225955 6.584462
          -0.802791 0.893604 1.818701
          -0.569380 -0.990826 6.648780
          -0.642711 0.115097 6.563869
          -0.680158 0.699601 1.820517
          -1.147667 0.136630 1.814769
          -0.126846 -0.421411 1.824010
          -0.043168 -0.382483 6.777951
          -0.069038 -0.127965 1.821457
          -0.085445 -0.269502 1.811610
          -0.711477 0.097848 6.691991
          -0.653861 0.304371 6.438008
          -0.320888 -0.179544 6.708216
          0.001719 -0.213531 6.925349
          -0.569242 0.027875 6.543585
          -0.645967 0.077724 6.689981
          0.010450 0.241247 6.785045
          -0.351005 -1.087490 6.564464
          -0.568880 0.127583 6.883829
          0.474381 0.029719 6.987864
          -0.446062 -0.944252 6.555915
          -0.616913 0.057242 6.658974
          -0.000897 0.235641 6.693278
          -1.246933 -0.301276 1.823022
          -0.479652 0.715713 1.819974
          -0.362473 -0.147910 1.825211
          0.348623 -0.635382 1.814003
          -0.630403 0.849435 1.822316
          -0.653524 0.233264 6.599252
          -0.420422 0.101745 6.866762
          -0.855185 0.530772 6.603598
          0.149885 -0.674502 1.827139
          -0.777996 0.841277 1.816725
          -0.566047 -1.008636 6.398850
          0.410305 -0.654017 1.818578
          5.247760 -0.508182 0.805392
          -0.090447 -0.753840 1.820631
          -0.754180 -1.166104 6.615936
          0.025416 -0.593919 1.825920
          0.773497 0.107586 6.749459
          4.835734 0.265035 6.127201
          0.437104 0.867258 6.706948
          1.110814 -0.010213 1.823311
          0.484442 0.088627 6.904111
          -0.660888 -1.282651 6.520740
          0.663988 0.570738 6.632615
          0.532768 0.856642 1.826198
          -0.451635 -0.119424 6.652212
          -0.399683 -0.037670 1.812245
          -0.084539 1.539272 6.756467
          0.279311 0.009680 6.840341
          -0.323670 -0.081583 1.817075
          -0.728021 -1.167332 6.626281
          -0.713233 0.935668 1.845662
          0.118349 1.378452 6.636594
          0.708234 -0.955178 6.679925
          0.017782 -0.047190 6.941311
          -0.372301 -0.074083 1.814788
          0.365968 1.000821 6.584701
          -0.810116 0.348123 6.457335
          1.105577 0.021526 1.822739
          0.486823 0.071324 7.015792
          0.298267 0.963988 6.738193
          0.831651 -1.288372 6.669396
          -0.125224 -0.719722 1.824518
          4.315165 0.436030 0.801712
          -0.599521 0.915972 1.822655
          0.410327 1.027123 6.597434
          -0.522599 0.671675 1.829120
          0.424666 -1.016548 6.601157
          4.560711 0.024241 6.132580
          0.373852 0.306801 4.333988
          0.424886 0.115418 7.036555
          0.185769 -0.135389 6.647132
          -0.315096 0.033803 1.824518
          0.108316 0.198434 7.013528
          0.222344 0.886720 6.406789
          -0.000000 -3.623562 5.141977
          -0.005960 -0.322546 1.824518
          -0.021517 0.234259 6.745689
          -0.023560 0.074116 1.807805
          0.560456 -1.161514 6.625130
          0.488004 0.138619 5.722216
          0.007388 1.447951 6.761142
          0.248618 0.235969 6.861978
          -0.163413 -0.069425 6.877116
          0.246151 0.822974 6.595793
          0.352616 -0.469627 1.813480
          0.232767 0.947811 6.680227
          0.843103 -1.234368 6.630819
          -0.363698 -0.108963 1.824683
          0.081550 -0.105657 6.839370
          -0.177813 -0.417441 1.823045
          0.506979 0.913612 1.825192
          -0.452203 -1.069526 6.461754
          0.000000 3.623562 5.141977
          -0.764380 0.734994 1.835106
          0.308792 -0.114876 6.717969
          -0.290563 -0.128436 1.825524
          0.192871 0.705204 6.447405
          0.305724 0.579684 6.432438
          -0.014683 -0.052837 4.184157
          0.075880 -0.144876 6.772371
          -0.336014 0.008586 1.821756
          0.070554 0.015864 1.808164
          0.004707 0.043682 1.810068
          -0.520155 -1.138029 6.666010
          -4.343486 0.073226 0.804672
          -0.223515 -0.596957 1.824518
          -0.355417 -1.139695 6.384482
          0.274127 -0.662902 1.825865
          -0.806784 0.152960 6.541315
          -4.370208 0.065392 6.150946
          0.032239 1.425331 6.707742
          -1.070007 0.029105 1.825096
          -0.224970 0.109472 6.780240
          0.809682 -1.201476 6.721576
          -0.711985 0.104590 6.458806
          -0.627841 0.918599 1.828052
          0.114595 0.032622 1.818484
          0.076346 0.000051 1.809441
          -0.006374 1.571574 6.782923
          -0.225049 0.228540 6.816429
          0.020764 -0.125068 1.824118
          -0.374983 -1.146735 6.423005
          0.368901 0.998698 1.808130
          0.274473 -0.013030 6.626755
          -0.451445 -0.931631 6.313792
          -0.376381 0.036524 6.652295
          -0.027778 -0.074303 1.824518
          -0.180740 1.410233 6.627353
          -0.672199 0.173228 6.490793
          -1.192035 0.005389 1.825817
          -0.251029 0.289409 6.896766
          -0.016119 1.417186 6.764714
          -0.269387 -1.001987 6.457378
          -0.005466 -0.801644 1.824012
          -4.408119 -0.087087 0.792930
          0.337599 0.984502 1.817519
          -0.078346 1.453966 6.625211
          0.496090 0.835030 1.829690
          -0.417302 -1.127564 6.307616
          -4.352862 -0.114132 6.154866
          0.019326 -0.432027 6.796226
          0.521466 -1.021104 6.684167
          0.599745 1.040342 1.770599
          0.469581 0.148442 6.463759
          1.032939 -0.462569 1.806984
          0.367059 0.886045 1.820017
          1.270535 0.015272 1.824597
          -0.297504 -0.394148 1.814029
          -0.051512 -0.008828 1.822699
          0.617946 1.073973 1.762149
          0.294810 -0.727717 1.820159
          0.743655 0.048885 6.737456
          0.710096 0.538212 6.594615
          -0.172986 -0.193705 6.777602
          -0.168953 0.259941 6.936362
          0.599605 0.259917 6.643470
          0.014868 -0.025736 6.429811
          -0.302653 -0.181011 6.756597
          0.492554 -0.967876 6.595989
          -0.721468 0.368372 6.615044
          0.463853 0.191318 6.922982
          0.470124 -1.211349 6.625393
          0.391766 0.208881 6.347433
          0.057972 0.181150 6.733209
          0.976473 -0.414571 1.818665
          0.349189 0.960817 1.838578
          -0.025152 -0.107683 1.814170
          -0.340751 -0.038137 1.824518
          0.704668 1.050549 1.781942
          0.700829 -0.005453 6.675456
          -0.513001 0.193702 6.892650
          0.688787 0.483153 6.602740
          1.126096 -0.088951 1.816624
          0.656245 0.491277 6.601552
          0.767591 0.079794 6.754326
          0.352924 -0.727003 1.811123
          -4.375993 0.074482 0.806104
          0.677579 -1.297967 6.681565
          -1.097788 -0.317372 1.824518
          -1.131289 0.086763 1.825979
          1.027590 -0.215862 1.825742
          -4.401008 0.075891 6.151274
          0.510513 0.318483 6.787223
          0.742409 0.525916 6.595858
          0.228882 0.139756 7.065507
          0.614604 0.119818 6.771710
          0.480763 0.985813 1.827155
          0.438564 -0.054215 6.490726
          0.088786 -0.304249 6.649884
          -0.178526 -0.432799 1.808586
          -0.594650 -1.300866 6.646460
          -1.033025 0.369600 6.558734
          -0.264493 0.250772 6.925289
          0.577995 1.135231 1.762899
          0.415501 -0.124445 6.610663
          -0.532228 1.001046 1.833225
          0.196924 1.011270 6.652114
          -0.499541 -1.237839 6.726375
          -0.264892 0.163113 6.670470
          0.817924 -1.057614 6.643951
          0.421339 0.222099 6.491862
          0.450749 -0.999105 6.621705
          0.364090 0.017988 7.050566
          0.469991 0.226680 6.507823
          1.012152 -0.168856 1.825646
          0.551856 -0.903208 6.677375
          -4.408621 -0.087698 0.794238
          0.308688 0.818752 6.649296
          -1.181450 0.115653 1.825704
          -1.200124 -0.289157 1.816700
          1.285313 -0.105663 1.824518
          -4.376323 -0.000074 6.153967
          -1.150306 -0.305840 1.823830
          0.694031 0.075976 6.627871
          0.239835 0.107099 7.097204
          0.736139 0.569836 6.687197
          0.589141 -1.124202 6.498362
          -0.056107 0.212028 6.771903
          1.022953 -0.403465 1.805571
          -0.061703 1.479144 6.670853
          -0.551539 -0.862290 6.678624
          -1.158328 -0.297394 1.809930
          -0.270239 -0.098147 6.742242
          0.463857 -1.164212 6.768009
          0.498043 -1.134539 6.619959
          -0.581483 -0.965479 6.370871
          0.738033 0.500234 6.636157
          -0.023679 -0.797125 1.824801
          -0.006397 0.250714 6.701021
          0.495591 0.075804 6.597485
          0.441139 0.252914 6.747298
          -1.066044 0.051901 1.821476
          0.614601 -0.927465 6.769435
          0.106570 -0.359247 6.876534
          -0.748385 0.437474 6.545579
          0.579971 -0.019398 6.666845
          1.015614 -0.283427 1.816269
          0.323587 -0.109747 6.614747
          -0.061268 1.312307 6.642382
          -1.202583 -0.198968 1.824167
          -0.370893 0.242572 6.887080
          0.545810 0.229058 6.597396
          -1.111909 0.046257 1.821729
          0.669324 0.020290 6.615314
          -0.084858 -0.402564 6.882081
          0.758625 -0.985013 6.661681
          0.458363 0.312809 6.617009
          0.230097 0.849999 6.434762
          0.283751 0.154559 6.834130
          0.084225 -0.151462 6.625010
          -0.717186 0.281934 6.421401
          -0.391650 0.801840 1.825615
          -0.132879 -0.766071 1.806286
          -0.879149 0.385978 6.635397
          -0.534494 0.813999 1.827055
          0.791187 -1.241031 6.645843
          0.516230 0.151809 6.653609
          -1.210290 0.023676 1.825775
          0.305787 -0.771434 1.816802
          -0.383105 0.230951 6.865235
          0.367206 0.905153 6.513891
          0.563630 0.494143 6.707937
          -0.212035 -0.655654 1.824704
          0.175242 0.853083 6.597457
          0.228514 -0.085924 6.933910
          -1.203576 -0.240865 1.825112
          0.817576 -1.073186 6.702876
          0.621033 -1.163779 6.659160
          0.455978 0.949597 1.817986
          0.714662 -1.094605 6.554822
          0.435884 0.006377 6.899187
          -1.252669 -0.220198 1.819357
          -0.069852 -0.415241 1.813961
          -0.076773 1.400419 6.657775
          -0.802235 0.537988 6.522214
          -0.393653 -0.173114 1.813551
          0.616091 1.079124 1.753821
          -0.021925 -0.006024 6.941807
          0.091036 -0.203263 6.659895
          -0.215884 -0.065369 6.695364
          -0.065344 -0.435998 6.741667
          0.043140 -0.431552 1.810474
          0.358260 0.990625 1.808742
          -0.722046 -1.269720 6.586538
        </DataArray>
      </Points>
      <PointData Scalars="density">
        <DataArray type="Float64" Name="density" format="ascii">
          903.436924
          976.126493
          1013.203516
          870.215540
          942.676024
          799.428672
          776.014272
          896.233645
          1108.866088
          1007.100580
          944.175003
          922.623044
          951.440895
          974.840384
          1086.827343
          982.883338
          835.742609
          1019.841684
          746.015798
          823.040787
          834.061120
          1105.150264
          813.599353
          1046.619905
          1043.716494
          984.774500
          766.912955
          980.506268
          698.704751
          1032.457537
          1024.119993
          739.289929
          939.556488
          659.410167
          739.498488
          842.941161
          1052.187754
          766.686023
          1262.268615
          834.847505
          912.452282
          1157.894082
          893.644759
          857.447857
          980.162321
          942.759323
          1009.836447
          908.473562
          989.773892
          818.381219
          1217.989946
          598.288176
          981.566384
          859.858115
          1041.636910
          805.119946
          954.741724
          896.293162
          860.536732
          1014.611917
          1061.757373
          974.859586
          769.265428
          947.453199
          922.989152
          850.260703
          928.100927
          689.459310
          1057.366578
          553.603808
          651.985072
          783.216153
          500.000000
          727.336531
          1051.404647
          977.708720
          993.599564
          500.000000
          846.758252
          840.299124
          1012.247066
          806.742670
          1024.741164
          1038.343023
          736.001197
          788.087184
          693.386571
          906.761453
          834.818147
          1182.161498
          712.087576
          934.210315
          822.600299
          1048.087763
          1150.207396
          1130.442480
          711.872120
          833.559883
          887.714950
          952.601637
          994.592440
          1207.814229
          500.000000
          812.648299
          953.908452
          925.410897
          836.478039
          500.000000
          949.025418
          906.367610
          723.555880
          920.481292
          1065.019803
          963.146218
          803.847376
          1062.389869
          1226.608222
          1066.555962
          991.346421
          893.468724
          888.907967
          838.447030
          1002.195022
          828.750718
          970.199571
          1091.300667
          972.187601
          711.563497
          916.281242
          1002.261474
          972.142765
          888.050460
          807.252374
          936.044055
          919.957040
          803.432557
          1266.083678
          1082.306509
          963.463626
          752.312097
          954.828535
          875.940678
          938.920144
          677.429818
          500.000000
          869.349899
          738.292862
          1075.062640
          751.056778
          500.000000
          755.302830
          977.097067
          1128.628118
          844.918861
          843.655482
          955.448416
          765.024481
          845.673252
          861.526804
          1111.139291
          980.665826
          800.200773
          943.505847
          697.814968
          975.389269
          812.644893
          913.648524
          878.709979
          1054.367349
          907.287668
          882.283388
          803.940178
          686.192525
          871.312973
          500.000000
          1180.804001
          776.057378
          899.914963
          808.606769
          500.000000
          500.000000
          951.850718
          913.763082
          794.332108
          822.876594
          597.100306
          500.000000
          890.530217
          972.993738
          828.772891
          1205.545489
          500.000000
          989.258690
          1052.493506
          892.603399
          947.635839
          500.000000
          890.296490
          772.338567
          902.908236
          1059.307510
          1004.161485
          1090.338816
          1249.397681
          500.000000
          788.920246
          865.597422
          1031.348100
          500.000000
          500.000000
          500.000000
          1182.439375
          825.905773
          850.969946
          846.767065
          1058.724127
          500.000000
          914.692298
          850.382148
          870.413495
          995.999641
          500.000000
          1026.317520
          866.486769
          1088.002531
          877.499393
          930.090484
          1161.031800
          728.981372
          849.789845
          691.465132
          1052.830772
          936.603641
          903.112265
          923.629282
          954.494702
          748.690125
          924.009726
          1020.396186
          819.943982
          1048.159540
          995.196428
          893.858250
          1029.813479
          712.287287
          738.876220
          500.000000
          844.383771
          1097.366231
          818.820314
          761.930780
          500.000000
          1071.944984
          1124.167705
          1017.376094
          1003.376914
          663.201870
          799.171321
          868.215970
          734.219755
          1002.679262
          948.358527
          838.563257
          819.927675
          837.653969
          1129.791442
          906.136949
          1116.894286
          500.000000
          883.282500
          861.223174
          1025.146927
          1012.885650
          937.304417
          612.158025
          1032.719471
          778.280646
          891.318538
          1016.912665
          921.081754
          713.608192
          897.993034
          744.459273
          888.847400
          1157.109259
          904.473946
          761.914776
          791.699274
          500.000000
          844.448144
          796.287122
          895.220154
          1082.149551
          500.000000
          831.927967
          820.665824
          843.851237
          1143.331968
          1171.394088
          739.575088
          975.569371
          1023.820902
          884.750837
          635.649527
          882.524207
          791.748997
          713.938345
          843.426450
          817.625220
          820.603399
          818.692578
          867.166732
          1018.987794
          882.517900
          883.860681
          1060.850956
          1041.517493
          786.173867
          500.000000
          937.828568
          831.371302
          911.489539
          827.243408
          500.000000
          886.684085
          974.552386
          807.158798
          754.647636
          898.570905
          1095.330442
          780.698558
          1157.775789
          500.000000
          895.469108
          962.947430
          732.710731
          1042.608123
          738.299880
          844.658577
          809.805042
          884.518265
          1301.396697
          1048.904676
          844.867741
          743.035225
          891.942060
          954.372040
          1011.798136
          1000.863931
          839.164794
          874.922403
          1014.028482
          882.200738
          1178.796686
          940.950106
          910.393707
          1018.978425
          892.610638
          963.167794
          623.855034
          1168.105492
          923.253528
          926.313865
          773.734055
          779.826554
          1015.180921
          1203.842534
          925.071125
          1333.944504
          978.658652
          774.352234
          885.129007
          869.175418
          769.550815
          860.613564
          786.490765
          836.635478
          978.624426
          873.862691
          1278.797114
          1094.871977
          1038.836555
          1076.617519
          922.149056
          1066.250797
          1115.260202
          663.758686
          758.588043
          956.532401
          821.715778
          1037.476142
          898.352887
          1047.949524
          900.170160
          911.979083
          815.216286
        </DataArray>
        <DataArray type="Float64" Name="pressure" format="ascii">
          -2896.892271
          -716.205214
          396.105480
          -3893.533810
          -1719.719286
          -6017.139846
          -6719.571845
          -3112.990636
          3265.982633
          213.017408
          -1674.749908
          -2321.308668
          -1456.773147
          -754.788482
          2604.820275
          -513.499874
          -4927.721744
          595.250510
          -7619.526061
          -5308.776384
          -4978.166409
          3154.507919
          -5592.019406
          1398.597136
          1311.494828
          -456.765004
          -6992.611353
          -584.811974
          -9038.857476
          973.726119
          723.599779
          -7821.302129
          -1813.305365
          -10217.694990
          -7815.045349
          -4711.765171
          1565.632621
          -6999.419320
          7868.058465
          -4954.574835
          -2626.431542
          4736.822471
          -3190.657227
          -4276.564294
          -595.130359
          -1717.220303
          295.093422
          -2745.793141
          -306.783228
          -5448.563427
          6539.698366
          -12051.354733
          -553.008489
          -4204.256561
          1249.107313
          -5846.401615
          -1357.748287
          -3111.205126
          -4183.898050
          438.357516
          1852.721195
          -754.212428
          -6922.037168
          -1576.404041
          -2310.325442
          -4492.178901
          -2156.972198
          -9316.220704
          1720.997331
          -13391.885746
          -10440.447841
          -6503.515415
          -15000.000000
          -8179.904066
          1542.139409
          -668.738410
          -192.013094
          -15000.000000
          -4597.252451
          -4791.026280
          367.411987
          -5797.719899
          742.234917
          1150.290689
          -7919.964086
          -6357.384495
          -9198.402871
          -2797.156411
          -4955.455600
          5464.844952
          -8637.372723
          -1973.690549
          -5321.991017
          1442.632899
          4506.221879
          3913.274391
          -8643.836396
          -4993.203523
          -3368.551493
          -1421.950883
          -162.226796
          6234.426882
          -15000.000000
          -5620.551022
          -1382.746452
          -2237.673090
          -4905.658844
          -15000.000000
          -1529.237463
          -2808.971700
          -8293.323602
          -2385.561236
          1950.594095
          -1105.613459
          -5884.578712
          1871.696082
          6798.246663
          1996.678857
          -259.607365
          -3195.938289
          -3332.761005
          -4846.589115
          65.850651
          -5137.478454
          -894.012873
          2739.020024
          -834.371961
          -8653.095103
          -2511.562752
          67.844221
          -835.717039
          -3358.486206
          -5782.428771
          -1918.678362
          -2401.288789
          -5897.023297
          7982.510338
          2469.195265
          -1096.091216
          -7430.637078
          -1355.143938
          -3721.779661
          -1832.395682
          -9677.105455
          -15000.000000
          -3919.503027
          -7851.214125
          2251.879207
          -7468.296649
          -15000.000000
          -7340.915104
          -687.087976
          3858.843550
          -4652.434167
          -4690.335532
          -1336.547528
          -7049.265573
          -4629.802453
          -4154.195872
          3334.178718
          -580.025206
          -5993.976815
          -1694.824601
          -9065.550957
          -738.321943
          -5620.653198
          -2590.544287
          -3638.700636
          1631.020470
          -2781.369965
          -3531.498354
          -5881.794675
          -9414.224262
          -3860.610796
          -15000.000000
          5424.120021
          -6718.278659
          -3002.551100
          -5741.796920
          -15000.000000
          -15000.000000
          -1444.478468
          -2587.107530
          -6170.036774
          -5313.702185
          -12086.990809
          -15000.000000
          -3284.093482
          -810.187867
          -5136.813283
          6166.364656
          -15000.000000
          -322.239286
          1574.805181
          -3221.898031
          -1570.924837
          -15000.000000
          -3291.105296
          -6829.842979
          -2912.752915
          1779.225309
          124.844537
          2710.164490
          7481.930424
          -15000.000000
          -6332.392614
          -4032.077350
          940.442996
          -15000.000000
          -15000.000000
          -15000.000000
          5473.181258
          -5222.826804
          -4470.901628
          -4596.988049
          1761.723810
          -15000.000000
          -2559.231068
          -4488.535574
          -3887.595144
          -120.010764
          -15000.000000
          789.525603
          -4005.396941
          2640.075917
          -3675.018197
          -2097.285482
          4830.953989
          -8130.558827
          -4506.304661
          -9256.046054
          1584.923151
          -1901.890767
          -2906.632064
          -2291.121550
          -1365.158940
          -7539.296241
          -2279.708208
          611.885578
          -5401.680538
          1444.786208
          -144.107148
          -3184.252502
          894.404372
          -8631.381380
          -7833.713409
          -15000.000000
          -4668.486865
          2920.986919
          -5435.390576
          -7142.076601
          -15000.000000
          2158.349516
          3725.031142
          521.282818
          101.307406
          -10103.943890
          -6024.860369
          -3953.520889
          -7973.407339
          80.377873
          -1549.244186
          -4843.102299
          -5402.169753
          -4870.380941