<?xml version="1.0"?>
<VTKFile type="PolyData" version="0.1" byte_order="LittleEndian">
  <PolyData>
    <Piece NumberOfPoints="396" NumberOfVerts="396" NumberOfLines="0" NumberOfStrips="0" NumberOfPolys="0">
      <Points>
        <DataArray type="Float64" NumberOfComponents="3" format="ascii">
          0.107719 0.127955 24.253009
          -0.247962 -0.242875 24.304015
          0.535296 0.248927 23.594584
          0.842563 0.248898 23.802305
          -0.515100 -0.140885 23.851413
          0.375909 0.315770 24.293743
          0.086374 0.273204 23.796109
          -0.506405 -0.127697 24.316939
          0.214964 -0.261252 24.453220
          0.205452 -0.329407 23.860863
          0.077446 -0.543023 23.868474
          0.010255 0.035623 23.166821
          0.265034 0.220198 24.434730
          0.051423 0.588176 24.199062
          0.212771 -0.196607 23.910521
          0.046014 0.508665 24.209023
          -0.587451 0.149504 23.533445
          0.900954 0.250400 23.872896
          0.264521 -0.220225 24.434935
          0.051853 -0.588049 24.199744
          0.212414 0.196281 23.911036
          0.046028 -0.508567 24.208070
          -0.587974 -0.149140 23.533402
          0.900438 -0.250841 23.873455
          0.086400 -0.273401 23.796854
          -0.506262 0.128077 24.316878
          0.214690 0.261104 24.452718
          0.205101 0.328657 23.860509
          0.076948 0.543101 23.868330
          0.010233 -0.035519 23.164457
          0.105455 -0.127434 24.251767
          -0.247657 0.244230 24.303839
          0.535749 -0.248893 23.594729
          0.843101 -0.248710 23.802273
          -0.517550 0.140231 23.854839
          0.375734 -0.315714 24.293594
          0.973134 0.090116 23.827068
          -0.261339 -0.251622 24.243879
          -0.447803 -0.200587 23.621483
          -0.596166 -0.012966 24.452357
          -0.633655 -0.276095 23.912919
          -0.436843 -0.287211 24.333865
          -0.978658 -0.100287 23.877251
          -0.398190 0.199542 24.425183
          0.342619 -0.269222 24.386984
          1.012234 0.095984 23.825553
          -0.015538 0.237406 23.564550
          -0.747876 -0.291518 23.968351
          -0.716375 -0.103271 24.241475
          0.728035 -0.113234 24.250342
          -0.618614 0.177345 23.856885
          -0.424415 -0.242366 23.664466
          0.719504 -0.056424 23.856851
          -0.745023 -0.039530 24.340040
          -0.716324 0.102824 24.241362
          0.728059 0.113277 24.250271
          -0.618071 -0.177476 23.857905
          -0.425833 0.240382 23.663312
          0.719357 0.056527 23.856549
          -0.744535 0.039568 24.340757
          -0.978596 0.101043 23.876285
          -0.397938 -0.199355 24.424846
          0.342565 0.269255 24.386859
          1.012341 -0.096106 23.825771
          -0.015469 -0.237616 23.563221
          -0.745169 0.291841 23.968087
          0.972706 -0.089947 23.826560
          -0.261125 0.251281 24.243072
          -0.447746 0.200646 23.621611
          -0.596218 0.012730 24.452354
          -0.634643 0.277065 23.913866
          -0.436925 0.286950 24.334327
          5.700932 1.750335 34.114689
          -0.088878 -0.294188 24.308192
          0.801110 -0.263412 23.975390
          0.396653 0.163572 23.679171
          -0.639239 0.017843 23.436878
          5.763074 1.783580 13.745857
          -0.171545 -0.053367 23.950611
          -0.853070 0.248602 23.754718
          0.015032 0.242327 23.334270
          -0.458065 0.054299 24.456367
          -0.149652 0.249809 23.848993
          -0.961246 0.061063 23.910037
          0.805565 -0.149655 24.094578
          0.121058 -0.001475 23.933814
          0.418521 -0.187365 24.270874
          0.391509 0.296683 24.363129
          0.534722 -0.006195 23.420559
          0.611118 0.028590 23.430253
          0.805278 0.148833 24.094762
          0.121437 0.001351 23.934051
          0.418203 0.187315 24.271088
          0.390684 -0.296815 24.362130
          0.534838 0.006065 23.420567
          0.611036 -0.028881 23.430197
          -0.171467 0.053938 23.950570
          -0.850671 -0.247660 23.754239
          0.013034 -0.244004 23.336284
          -0.457657 -0.054735 24.455989
          -0.149966 -0.249226 23.848025
          -0.961104 -0.061982 23.910315
          5.807150 -1.824494 34.166257
          -0.089632 0.296053 24.306688
          0.801129 0.263202 23.975568
          0.397011 -0.164375 23.680071
          -0.639267 -0.018134 23.436934
          5.813685 -1.823717 13.742954
          -0.474526 0.323474 23.657702
          -0.629896 -0.087056 24.095434
          -0.163809 0.127342 23.929882
          -0.605772 -0.200290 23.650168
          -0.894118 -0.212231 23.736944
          -0.174528 0.309676 23.752648
          -0.947429 -0.006710 23.714200
          -0.873619 -0.295139 23.880604
          -0.518140 -0.259214 23.774632
          0.071047 -0.558140 23.872261
          -0.444023 -0.068806 23.762904
          -0.566150 -0.264565 23.696741
          -0.711923 -0.064803 24.377014
          -0.365128 -0.299406 24.284047
          -0.594562 -0.073599 23.411876
          -0.571473 0.134151 23.993422
          -0.651059 -0.116614 24.368838
          -0.815722 0.212335 24.026498
          -0.711444 0.065080 24.377276
          -0.365421 0.298954 24.283437
          -0.594898 0.073480 23.411839
          -0.572147 -0.131073 23.993297
          -0.650368 0.116887 24.369385
          -0.815130 -0.211647 24.026941
          -0.943979 0.006489 23.713426
          -0.873345 0.295451 23.879874
          -0.518731 0.259208 23.773774
          0.070457 0.558565 23.872862
          -0.443985 0.066557 23.762756
          -0.565282 0.265376 23.697323
          -0.468926 -0.322388 23.657089
          -0.630702 0.086927 24.095625
          -0.164113 -0.126679 23.929712
          -0.605579 0.200213 23.650231
          -0.894501 0.212432 23.737295
          -0.174688 -0.309841 23.752372
          5.860957 1.844298 34.168581
          -0.569409 0.140340 23.500411
          -0.078984 -0.485810 23.920992
          -0.083311 -0.554108 23.807542
          0.665571 -0.099142 24.077220
          5.798930 1.806974 13.746530
          0.017663 0.601028 24.229881
          0.906835 -0.296896 23.869291
          -0.049693 -0.286056 23.522613
          -0.068480 -0.384417 24.156820
          0.638140 0.268538 23.937694
          0.476573 0.208595 23.743241
          -0.224557 -0.326369 23.862000
          0.146139 -0.015405 24.176473
          -0.022743 0.395750 24.391950
          0.106353 0.124121 23.425140
          -0.245251 0.015039 24.263118
          0.096513 -0.450542 24.302521
          -0.224555 0.326041 23.862279
          0.150481 0.011802 24.176907
          -0.022520 -0.398130 24.391028
          0.105491 -0.125680 23.426798
          -0.245162 -0.012751 24.262391
          0.096458 0.450536 24.302451
          0.017591 -0.601025 24.229081
          0.906768 0.296910 23.869134
          -0.050953 0.285088 23.522469
          -0.068553 0.384426 24.156656
          0.637807 -0.268231 23.937650
          0.475548 -0.208674 23.743450
          5.754740 -1.770139 34.117013
          -0.569451 -0.139988 23.500151
          -0.079217 0.485312 23.920410
          -0.083699 0.553972 23.807446
          0.665372 0.100155 24.077213
          5.748319 -1.766837 13.749434
          -0.000000 2.392181 32.544289
          0.000403 -0.005238 23.158851
          0.001375 0.152456 23.954644
          -0.000076 0.163789 23.347937
          0.000240 0.241632 23.405185
          0.000000 2.392179 15.343550
          -0.000000 -2.281054 21.269131
          -0.000260 -0.231076 23.375141
          -0.000014 -0.493646 24.167635
          0.000996 -0.029333 23.484754
          0.000553 -0.254881 24.386078
          0.000000 0.269081 26.659114
          -0.000176 0.528423 23.869423
          -0.000039 -0.116206 23.609848
          0.000542 0.349602 24.001807
          -0.000063 0.497140 23.817943
          0.000501 -0.217013 24.450342
          0.000489 0.239080 24.407930
          0.000283 -0.528283 23.869107
          0.000625 0.115961 23.608571
          -0.000511 -0.349805 24.003018
          0.000162 -0.497518 23.818011
          -0.001199 0.216289 24.450406
          -0.000225 -0.239755 24.408401
          0.000000 2.281054 21.269130
          -0.000004 0.230496 23.373579
          -0.000048 0.493837 24.168696
          -0.001145 0.022540 23.471294
          -0.000856 0.255297 24.386355
          -0.000000 -0.269081 26.659114
          -0.000000 -2.392181 32.544289
          0.000174 0.009323 23.163642
          -0.001198 -0.152381 23.954731
          -0.000268 -0.160374 23.345213
          -0.000464 -0.239387 23.399198
          -0.000000 -2.392179 15.343550
          -5.786119 1.800503 34.143576
          0.568902 0.139954 23.500359
          0.079054 -0.486120 23.920987
          0.083608 -0.554060 23.807271
          -0.665199 -0.098536 24.077929
          -5.778678 1.791805 13.747209
          -0.017084 0.601124 24.229322
          -0.906816 -0.296975 23.869432
          0.050396 -0.285707 23.522833
          0.068484 -0.384201 24.156587
          -0.637922 0.268540 23.937887
          -0.475544 0.208447 23.743652
          0.224371 -0.326416 23.862188
          -0.146310 -0.010687 24.176502
          0.022066 0.397678 24.391203
          -0.106338 0.124075 23.424670
          0.245147 0.013500 24.262581
          -0.096731 -0.450167 24.302648
          0.224087 0.327072 23.862372
          -0.150458 0.013201 24.176029
          0.022429 -0.397791 24.391287
          -0.105478 -0.125734 23.426366
          0.245325 -0.014648 24.263189
          -0.096157 0.450955 24.302345
          -0.017566 -0.601034 24.229005
          -0.906769 0.296854 23.869049
          0.050758 0.285355 23.522137
          0.068729 0.384547 24.156882
          -0.637883 -0.268005 23.937520
          -0.475937 -0.208559 23.743021
          -5.794208 -1.767512 34.095735
          0.569488 -0.139904 23.499527
          0.078934 0.485638 23.920719
          0.083584 0.553945 23.807406
          -0.663589 0.099208 24.076269
          -5.778071 -1.794014 13.745786
          0.468607 0.322257 23.656590
          0.630111 -0.086970 24.095390
          0.163704 0.126587 23.929957
          0.605844 -0.200140 23.649601
          0.894296 -0.212377 23.737153
          0.174165 0.309388 23.752453
          0.947389 -0.006786 23.714181
          0.873501 -0.295212 23.880330
          0.518562 -0.259169 23.773427
          -0.070700 -0.558340 23.872354
          0.444040 -0.068027 23.762838
          0.566395 -0.264978 23.697264
          0.711989 -0.064774 24.377055
          0.365449 -0.299238 24.283776
          0.594767 -0.073599 23.411603
          0.572084 0.132963 23.993264
          0.650863 -0.116702 24.369024
          0.815505 0.212337 24.026462
          0.711397 0.065141 24.377285
          0.365137 0.299204 24.283689
          0.594848 0.073424 23.411960
          0.571352 -0.132209 23.992792
          0.650513 0.116865 24.369228
          0.815578 -0.211804 24.026989
          0.944089 0.006578 23.713416
          0.873443 0.295398 23.880060
          0.519703 0.258739 23.773992
          -0.070704 0.558484 23.872931
          0.443617 0.067680 23.762550
          0.564914 0.264907 23.697019
          0.471673 -0.322385 23.657962
          0.630446 0.087071 24.095882
          0.163654 -0.126370 23.930228
          0.605745 0.200135 23.650910
          0.894383 0.212336 23.737143
          0.174519 -0.309560 23.752424
          -5.775771 1.794130 34.139693
          0.089348 -0.295070 24.307691
          -0.801312 -0.263571 23.975041
          -0.396852 0.164552 23.679608
          0.639329 0.017811 23.436885
          -5.783327 1.798749 13.745178
          0.171095 -0.052827 23.950933
          0.852772 0.248567 23.754712
          -0.014969 0.242361 23.334707
          0.457974 0.054453 24.456353
          0.149803 0.249522 23.848189
          0.961252 0.061224 23.910115
          -0.805752 -0.150134 24.094269
          -0.120899 -0.001299 23.934025
          -0.418386 -0.187584 24.271427
          -0.391296 0.296580 24.362518
          -0.534868 -0.006314 23.420558
          -0.611043 0.028735 23.430281
          -0.805065 0.148544 24.094847
          -0.121211 0.001586 23.934077
          -0.418392 0.187176 24.270752
          -0.391047 -0.296845 24.363022
          -0.534916 0.006137 23.420627
          -0.610948 -0.028930 23.430220
          0.171197 0.053007 23.950856
          0.851118 -0.247759 23.754219
          -0.013160 -0.244302 23.336172
          0.457745 -0.054564 24.456023
          0.149537 -0.249736 23.848706
          0.961165 -0.061848 23.910228
          -5.767682 -1.827121 34.187534
          0.089167 0.295321 24.307179
          -0.800936 0.262971 23.975856
          -0.396537 -0.163798 23.680042
          0.639415 -0.018215 23.436905
          -5.783934 -1.796539 13.746601
          -0.973232 0.090117 23.827173
          0.260833 -0.251098 24.242708
          0.447965 -0.200531 23.621395
          0.596040 -0.013053 24.452362
          0.633774 -0.276367 23.913164
          0.436880 -0.286869 24.334216
          0.978676 -0.100391 23.877080
          0.398097 0.199501 24.425156
          -0.342554 -0.269280 24.386611
          -1.012216 0.095940 23.825690
          0.016556 0.236840 23.566155
          0.747141 -0.291611 23.968282
          0.716304 -0.103458 24.241649
          -0.727909 -0.113307 24.250169
          0.618113 0.177530 23.856650
          0.424534 -0.241892 23.664526
          -0.719488 -0.056503 23.857105
          0.745037 -0.039428 24.340125
          0.716402 0.102666 24.241302
          -0.728137 0.113133 24.250305
          0.618196 -0.177328 23.857504
          0.425465 0.239997 23.662686
          -0.719488 0.056292 23.856636
          0.744612 0.039672 24.340729
          0.978598 0.100981 23.876420
          0.398113 -0.199480 24.424921
          -0.342483 0.269221 24.387224
          -1.012363 -0.096121 23.825661
          0.016518 -0.238209 23.566110
          0.745478 0.291817 23.968004
          -0.972538 -0.089925 23.826436
          0.261553 0.251765 24.244021
          0.447197 0.200929 23.621792
          0.596305 0.012647 24.452406
          0.634804 0.276792 23.913659
          0.437025 0.287141 24.333997
          -0.106872 0.127602 24.252643
          0.247852 -0.243824 24.304440
          -0.535396 0.248992 23.594875
          -0.842465 0.248930 23.802401
          0.516981 -0.140028 23.853920
          -0.376094 0.315728 24.294043
          -0.086970 0.273347 23.796288
          0.506447 -0.127690 24.316720
          -0.215486 -0.261443 24.452764
          -0.205802 -0.329453 23.860707
          -0.077117 -0.543052 23.868229
          -0.011640 0.041157 23.166268
          -0.265009 0.220037 24.435124
          -0.051592 0.588078 24.199145
          -0.212586 -0.196416 23.910693
          -0.046139 0.508776 24.207898
          0.587529 0.149650 23.533950
          -0.901143 0.250294 23.872727
          -0.264547 -0.220356 24.434575
          -0.051734 -0.588070 24.199705
          -0.212684 0.196643 23.910740
          -0.046009 -0.508515 24.208470
          0.588401 -0.149123 23.533057
          -0.900180 -0.251032 23.873702
          -0.086120 -0.273273 23.796066
          0.506198 0.128099 24.317063
          -0.213363 0.261152 24.453360
          -0.205406 0.328374 23.860824
          -0.077051 0.543095 23.868486
          -0.009696 -0.035129 23.164810
          -0.106349 -0.127454 24.252213
          0.247856 0.243382 24.303611
          -0.535756 -0.248967 23.594262
          -0.843229 -0.248725 23.802174
          0.515730 0.141059 23.852008
          -0.375528 -0.315711 24.293326
        </DataArray>
      </Points>
      <PointData Scalars="density">
        <DataArray type="Float64" Name="density" format="ascii">
          935.497859
          1112.128186
          968.009697
          1015.289609
          1012.318680
          874.531384
          1072.788509
          1085.073802
          866.473134
          857.747446
          965.312182
          770.486629
          938.486503
          886.731015
          865.052915
          1055.923162
          1041.183608
          1014.122136
          938.706666
          885.933800
          865.063207
          1055.963652
          1041.301013
          1013.782697
          1072.871133
          1085.134701
          867.221522
          858.706972
          965.614255
          766.333818
          936.123650
          1113.717587
          967.259595
          1015.006667
          1010.731537
          874.300061
          1078.921039
          1004.411466
          990.825680
          943.305084
          957.645270
          896.138072
          1051.594569
          947.741527
          998.156866
          947.689958
          908.747877
          949.468445
          1036.260880
          977.569598
          1151.824047
          943.861458
          1141.318428
          973.255914
          1037.092952
          977.496663
          1149.801791
          943.438428
          1141.021127
          973.387662
          1051.958114
          948.641231
          998.372050
          947.318273
          913.900922
          948.848896
          1079.541102
          1005.334401
          988.637304
          943.419579
          957.631377
          896.501046
          500.000000
          1174.123817
          1007.221164
          944.516546
          958.939837
          500.000000
          913.995333
          926.752703
          858.706759
          877.262893
          973.006409
          1047.587361
          934.324508
          992.400492
          990.569852
          935.489459
          976.474769
          1001.181424
          934.876587
          992.310682
          991.034508
          936.451225
          976.644986
          1001.200226
          914.784728
          929.884176
          857.970870
          878.091640
          972.118490
          1047.927214
          500.000000
          1176.450958
          1007.377590
          943.878823
          958.948403
          500.000000
          841.163403
          1033.058888
          926.292261
          1049.138878
          889.209329
          876.470881
          874.924278
          952.159591
          1024.948349
          942.659239
          953.740707
          1023.165498
          968.806632
          913.289354
          932.997547
          924.342214
          982.781188
          1001.281005
          968.749031
          913.162591
          932.745727
          925.349729
          982.217262
          1002.948580
          875.000776
          951.311120
          1025.344245
          942.568042
          950.896502
          1022.319627
          840.867981
          1035.530700
          925.156941
          1049.293565
          889.594011
          877.252223
          500.000000
          1020.551133
          1100.734362
          843.592730
          1063.590066
          500.000000
          842.418365
          886.863774
          850.609117
          1064.117292
          966.656295
          1078.594469
          812.580589
          856.881341
          1028.622822
          869.748628
          886.556652
          1073.788569
          811.749667
          855.010379
          1028.411235
          872.608688
          885.071746
          1073.803289
          842.673691
          887.051196
          846.593265
          1064.299940
          966.844237
          1076.857435
          500.000000
          1020.837900
          1101.519470
          843.297303
          1062.530878
          500.000000
          500.000000
          762.006934
          1066.826909
          1050.217963
          950.341464
          500.000000
          500.000000
          921.740703
          1114.954586
          1023.291903
          1019.125282
          500.000000
          1077.697002
          827.280410
          1085.698801
          1070.409312
          784.600292
          924.327686
          1077.662791
          825.547499
          1083.643902
          1069.731816
          783.055919
          923.587799
          500.000000
          920.430003
          1115.247349
          1046.468754
          1019.113551
          500.000000
          500.000000
          768.107297
          1066.282697
          1050.802451
          953.322617
          500.000000
          500.000000
          1022.081616
          1100.651069
          843.375719
          1063.619908
          500.000000
          842.780145
          886.923008
          850.386625
          1064.320984
          967.323792
          1076.411650
          812.054830
          856.055739
          1028.812084
          869.510787
          885.441134
          1073.859073
          811.825910
          855.239460
          1028.051188
          872.604887
          886.658946
          1073.985658
          842.660017
          886.795953
          846.939197
          1063.928029
          966.728070
          1078.703877
          500.000000
          1019.937352
          1101.379430
          843.409089
          1062.626072
          500.000000
          839.828493
          1033.173608
          925.925025
          1048.693351
          889.500381
          878.060571
          874.930174
          951.965102
          1025.565936
          942.195979
          952.816999
          1022.536991
          968.691029
          913.053498
          932.542385
          924.552751
          982.470621
          1002.027943
          968.879134
          913.425845
          933.118721
          923.456048
          982.454132
          1001.825187
          874.901193
          951.748413
          1026.745634
          942.584696
          952.542893
          1023.218868
          842.916459
          1033.498271
          926.301889
          1050.169715
          889.598910
          877.219944
          500.000000
          1175.925346
          1007.468214
          942.413750
          958.878104
          500.000000
          915.269050
          927.390810
          859.659585
          877.403008
          972.894001
          1047.607310
          934.335524
          992.499753
          990.835932
          935.914834
          976.414637
          1001.169792
          935.107419
          992.419514
          991.039707
          935.643957
          976.661703
          1001.127046
          914.755072
          929.256719
          856.502212
          878.069667
          972.619404
          1047.831084
          500.000000
          1174.487456
          1007.102845
          945.012340
          958.774649
          500.000000
          1078.774828
          1004.757203
          989.356838
          943.336002
          957.868804
          896.703022
          1051.567376
          948.176067
          998.655013
          947.869885
          908.151987
          949.374003
          1035.753624
          977.859892
          1150.801366
          942.301925
          1141.936651
          973.281772
          1037.396375
          977.440958
          1150.453076
          945.588917
          1141.034466
          973.371809
          1051.958797
          948.266709
          998.047482
          947.126620
          911.341223
          949.166580
          1079.847628
          1004.472137
          990.391592
          943.239162
          957.473907
          896.396121
          936.378745
          1114.027211
          967.440182
          1015.074275
          1010.571722
          874.349500
          1072.099893
          1084.943191
          867.566389
          857.643920
          965.074877
          769.617227
          938.465644
          886.717273
          865.491993
          1055.675583
          1041.972298
          1013.650146
          939.117875
          885.921618
          865.282875
          1055.920371
          1040.438951
          1013.935858
          1072.203459
          1084.952023
          866.207399
          858.260970
          965.724903
          766.394527
          934.902661
          1111.624598
          966.933707
          1014.651759
          1012.035416
          874.400876
        </DataArray>
        <DataArray type="Float64" Name="pressure" format="ascii">
          -1935.064220
          3363.845572
          -959.709103
          458.688267
          369.560394
          -3764.058484
          2183.655271
          2552.214054
          -4005.805973
          -4267.576626
          -1040.634537
          -6885.401130
          -1845.404900
          -3398.069553
          -4048.412562
          1677.694859
          1235.508251
          423.664072
          -1838.800006
          -3421.985998
          -4048.103788
          1678.909550
          1239.030400
          413.480921
          2186.133984
          2554.041037
          -3983.354336
          -4238.790831
          -1031.572341
          -7009.985448
          -1916.290514
          3411.527610
          -982.212137
          450.200004
          321.946114
          -3770.998177
          2367.631166
          132.343984
          -275.229605
          -1700.847473
          -1270.641912
          -3115.857839
          1547.837067
          -1567.754181
          -55.294006
          -1569.301263
          -2737.563692
          -1515.946646
          1087.826398
          -672.912072
          4554.721401
          -1684.156253
          4239.552840
          -802.322595
          1112.788574
          -675.100106
          4494.053724
          -1696.847170
          4230.633809
          -798.370144
          1558.743423
          -1540.763070
          -48.838506
          -1580.451803
          -2582.972346
          -1534.533113
          2386.233071
          160.032026
          -340.880874
          -1697.412617
          -1271.058687
          -3104.968623
          -15000.000000
          5223.714500
          216.634912
          -1664.503621
          -1231.804893
          -15000.000000
          -2580.140009
          -2197.418907
          -4238.797239
          -3682.113210
          -809.807730
          1427.620816
          -1970.264774
          -227.985247
          -282.904439
          -1935.316217
          -705.756917
          35.442712
          -1953.702392
          -230.679539
          -268.964760
          -1906.463241
          -700.650435
          36.006792
          -2556.458159
          -2103.474729
          -4260.873886
          -3657.250791
          -836.445313
          1437.816405
          -15000.000000
          5293.528741
          221.327688
          -1683.635297
          -1231.547912
          -15000.000000
          -4765.097912
          991.766655
          -2211.232177
          1474.166355
          -3323.720123
          -3705.873561
          -3752.271646
          -1435.212261
          748.450480
          -1720.222820
          -1387.778802
          694.964927
          -935.801043
          -2601.319390
          -2010.073591
          -2269.733585
          -516.564360
          38.430145
          -937.529058
          -2605.122267
          -2017.628180
          -2239.508130
          -533.482148
          88.457408
          -3749.976713
          -1460.666392
          760.327362
          -1722.958728
          -1473.104936
          669.588817
          -4773.960556
          1065.920986
          -2245.291755
          1478.806939
          -3312.179668
          -3682.433318
          -15000.000000
          616.533983
          3022.030856
          -4692.218095
          1907.701995
          -15000.000000
          -4727.449042
          -3394.086784
          -4481.726485
          1923.518774
          -1000.311153
          2357.834081
          -5622.582337
          -4293.559763
          858.684657
          -3907.541158
          -3403.300449
          2213.657080
          -5647.510000
          -4349.688631
          852.337064
          -3821.739360
          -3447.847620
          2214.098675
          -4719.789259
          -3388.464111
          -4602.202038
          1928.998187
          -994.672886
          2305.723058
          -15000.000000
          625.136999
          3045.584099
          -4701.080915
          1875.926337
          -15000.000000
          -15000.000000
          -7139.791969
          2004.807280
          1506.538894
          -1489.756093
          -15000.000000
          -15000.000000
          -2347.778916
          3448.637579
          698.757085
          573.758447
          -15000.000000
          2330.910066
          -5181.587689
          2570.964016
          2112.279370
          -6461.991255
          -2270.169414
          2329.883744
          -5233.575026
          2509.317049
          2091.954481
          -6508.322421
          -2292.366035
          -15000.000000
          -2387.099911
          3457.420461
          1394.062618
          573.406543
          -15000.000000
          -15000.000000
          -6956.781079
          1988.480900
          1524.073525
          -1400.321488
          -15000.000000
          -15000.000000
          662.448481
          3019.532062
          -4698.728416
          1908.597228
          -15000.000000
          -4716.595636
          -3392.309757
          -4488.401237
          1929.629505
          -980.286254
          2292.349503
          -5638.355103
          -4318.327826
          864.362511
          -3914.676399
          -3436.765988
          2215.772205
          -5645.222688
          -4342.816192
          841.535629
          -3821.853398
          -3400.231621
          2219.569738
          -4720.199491
          -3396.121417
          -4591.824104
          1917.840864
          -998.157894
          2361.116307
          -15000.000000
          598.120562