<?xml version="1.0"?>
<VTKFile type="PolyData" version="0.1" byte_order="LittleEndian">
  <PolyData>
    <Piece NumberOfPoints="396" NumberOfVerts="396" NumberOfLines="0" NumberOfStrips="0" NumberOfPolys="0">
      <Points>
        <DataArray type="Float64" NumberOfComponents="3" format="ascii">
          0.793937 0.190390 1.846432
          -0.681918 0.579350 1.834254
          -0.628471 0.416879 1.833249
          1.419393 3.921882 -0.500000
          -0.247962 -1.411743 -0.382002
          1.141230 0.353679 1.846758
          1.313908 3.841139 -0.500000
          -0.879425 -3.808353 -0.500000
          -0.522665 0.431965 1.826333
          2.878056 -1.013034 -0.483645
          -0.477390 -0.141570 1.843111
          -0.823109 -0.760938 1.824334
          1.186475 3.731856 -0.499993
          -0.598689 0.004991 1.843111
          -0.426219 -0.874473 1.847296
          1.052989 3.684361 -0.482110
          -0.896909 0.681788 1.846741
          2.832716 -1.152833 -0.500000
          -0.615914 -3.948376 -0.500000
          -0.602974 0.228544 1.831001
          -1.186328 1.051743 -0.500000
          -0.153395 -3.885111 -0.500000
          -0.729807 1.454697 -0.402235
          2.826606 -1.142935 -0.500000
          -0.074118 -1.683736 -0.466322
          0.900347 3.505584 -0.490048
          -0.721112 1.304810 -0.414964
          -0.063884 -0.530298 1.825113
          -1.943230 3.643856 -0.500000
          -0.464336 1.376072 1.263027
          -0.193704 -1.254100 -0.402257
          -0.966611 0.653028 1.846589
          -0.453205 -0.461645 1.829821
          0.105681 -1.077722 -0.487712
          -1.922850 3.640702 -0.500000
          1.415610 -3.900778 -0.489483
          2.731234 -0.848815 -0.471306
          -0.757689 0.583647 1.832555
          -0.786478 -0.581619 1.846713
          -0.377692 1.069539 -0.269862
          -0.885867 -3.859638 -0.500000
          -0.387950 -3.979684 -0.500000
          -3.428707 -0.962966 -0.500000
          -0.413686 -0.925463 1.846611
          1.369615 -3.900692 -0.484248
          2.859627 -1.010432 -0.476510
          -0.393437 1.077584 -0.284201
          -0.373891 -3.814368 -0.500000
          -0.370028 -3.942060 -0.500000
          0.990176 0.240402 1.846392
          -1.956666 3.680711 -0.500000
          -3.485645 -1.014404 -0.500000
          -0.911824 1.403930 -0.421130
          -0.428616 1.172033 -0.193438
          -0.498494 1.347954 1.327196
          1.305180 0.403809 1.847072
          -0.889532 -3.863627 -0.500000
          -1.167912 1.074650 -0.500000
          -0.552982 1.295011 1.249700
          -0.862909 1.494769 -0.395069
          -3.452063 -0.966476 -0.500000
          0.378062 -0.246917 1.846649
          0.828407 2.784136 -0.500000
          2.529627 -0.963256 -0.500000
          -0.703024 -0.432782 1.846362
          -1.065379 0.807666 1.846877
          2.546448 -0.839529 -0.500000
          -0.944987 1.300402 -0.391020
          -0.808852 -0.645950 1.846685
          -0.125961 -3.956152 -0.499262
          -0.601721 0.511411 1.831051
          0.919708 3.398607 -0.489728
          3.954395 -3.214477 -0.486649
          0.279740 -0.224647 1.843111
          2.678017 -1.197297 -0.498229
          2.592814 -0.803047 -0.500000
          -3.460466 -1.018497 -0.500000
          2.202996 0.154495 -0.492592
          -0.254224 -0.388126 1.846546
          -0.446268 1.349203 1.225137
          1.171704 0.314102 1.846780
          -0.457883 -0.062234 1.846653
          -1.960343 3.652189 -0.500000
          -0.632397 -0.006589 1.843111
          -0.856571 1.229575 -0.421004
          -0.691641 -0.372152 1.832366
          0.778120 -3.862144 -0.490842
          1.046654 2.825612 -0.486354
          -0.308409 1.110951 -0.269057
          -1.900054 3.652743 -0.500000
          0.820725 2.674002 -0.474282
          1.366031 3.933623 -0.500000
          1.159776 2.646924 -0.496290
          0.767436 -3.870484 -0.490134
          -0.440065 -0.071883 1.846628
          -0.648082 -3.912313 -0.500000
          1.240976 0.277431 1.846693
          -0.122734 -3.871645 -0.500000
          -0.956144 1.417497 -0.410480
          1.267648 0.321908 1.846582
          -0.096985 -0.531240 1.846630
          -0.796702 -3.913899 -0.500000
          2.189334 2.306684 -0.396972
          0.814656 3.490550 -0.500000
          2.856870 -1.016997 -0.477910
          2.690858 -0.850170 -0.500000
          -1.190092 1.031132 -0.500000
          2.254706 0.151757 -0.493087
          -0.373102 -0.963400 1.846601
          -0.545371 -3.926369 -0.500000
          -1.196087 1.036276 -0.500000
          -0.841594 -3.981911 -0.500000
          -0.446951 1.379138 1.229757
          -1.958175 3.660892 -0.500000
          -2.177700 -0.330573 -0.500000
          1.150029 0.421359 1.846703
          -0.379007 -0.270722 1.846775
          -0.006857 -0.589868 1.824502
          -0.647030 0.338842 1.843111
          0.058238 -0.483195 1.843111
          -0.647289 0.565024 1.834310
          -0.571424 0.433969 1.830652
          -0.529338 1.436739 1.261052
          -0.539494 1.359724 1.222603
          -0.522164 0.073992 1.846277
          0.265071 -0.186509 1.828489
          -0.858644 -3.887652 -0.500000
          -0.414735 1.035708 -0.331455
          -0.329295 1.096462 -0.325659
          -0.109144 -3.910507 -0.500000
          -0.997596 0.858316 1.846509
          0.008197 -0.552169 1.825933
          -3.455941 -1.013323 -0.500000
          -1.887318 3.669132 -0.500000
          0.042829 -1.009982 -0.499082
          -0.194266 -1.199371 -0.419027
          -1.192514 1.031219 -0.500000
          -0.817732 -0.573210 1.846651
          -0.455584 -0.178106 1.832225
          -0.407981 1.379342 1.251149
          -0.361205 -0.927082 1.846628
          -1.187926 1.032494 -0.500000
          -0.582283 -3.995577 -0.499212
          -0.063247 -1.608469 -0.472612
          3.992686 -3.246558 -0.500000
          -0.695328 -0.871695 1.846677
          -0.936999 -3.871116 -0.498807
          -0.259747 -0.383919 1.846618
          0.787469 0.215637 1.830306
          5.438699 -2.338894 -0.500000
          1.124034 2.611498 -0.483714
          2.862860 -1.055208 -0.474256
          -0.526836 1.185997 -0.318704
          -0.922229 -3.830638 -0.500000
          0.751758 0.059448 1.846651
          1.399296 3.927687 -0.500000
          0.712882 0.177551 1.832359
          0.040284 -1.208778 -0.490266
          0.985452 3.404068 -0.481576
          0.346527 -0.197158 1.825444
          -0.313882 -1.505052 -0.404092
          -0.336266 -3.851011 -0.500000
          -1.882657 3.669921 -0.500000
          0.795189 3.578772 -0.499504
          1.040600 -3.802804 -0.483496
          -0.593931 -1.032500 1.811002
          -0.615715 -0.950126 1.846811
          1.027775 2.619058 -0.493858
          -1.037624 0.804018 1.846507
          2.551088 -1.066955 -0.496241
          -0.969728 1.367696 -0.390204
          0.889902 2.869150 -0.493880
          1.390414 -3.919990 -0.489348
          -0.075004 -1.594933 -0.484742
          -1.134029 3.204869 -0.421665
          -1.186728 1.029157 -0.500000
          1.119245 2.579979 -0.493586
          -1.919170 3.652447 -0.500000
          0.759594 -3.888416 -0.487302
          2.241066 0.150483 -0.497499
          4.020795 -3.203306 -0.500000
          -0.326254 -0.551526 1.843111
          -0.787493 0.661763 1.834962
          -0.106559 -1.669450 -0.477739
          -0.963431 0.862003 1.828187
          0.844373 2.803929 -0.500000
          -0.341305 -1.368491 -0.353580
          -0.370329 -0.859613 1.846551
          -0.832889 0.588869 1.839377
          -0.123008 -1.245689 -0.398542
          1.082602 -3.871642 -0.493827
          4.757868 3.596261 -0.500000
          0.962194 3.349950 -0.500000
          -1.053683 0.810392 1.846547
          -0.349698 1.136747 -0.240068
          0.862590 2.737873 -0.498069
          -0.175232 -1.657341 -0.454113
          1.026842 2.837926 -0.499705
          1.152938 -3.895277 -0.489038
          0.381906 -0.117061 1.843111
          -1.053564 1.267285 -0.417247
          -0.799361 -0.541290 1.846585
          1.414918 3.898627 -0.500000
          -0.844848 -3.931900 -0.500000
          0.000001 1.551765 -0.500000
          -1.946486 3.627263 -0.500000
          0.278660 -0.201012 1.846497
          0.079274 -1.173290 -0.491097
          1.066009 2.795024 -0.483290
          0.884621 2.679463 -0.500000
          4.125210 3.604454 -0.436067
          0.256372 -0.191160 1.843111
          0.008939 -1.742625 -0.500000
          -0.812706 -0.657343 1.846612
          -0.366164 -0.558694 1.846559
          -0.203007 -3.833621 -0.499487
          -3.129314 1.633684 -0.378338
          -0.612600 -0.348492 1.832349
          -0.770735 -3.953138 -0.500000
          -0.075119 -1.700622 -0.434778
          0.245004 -0.131250 1.843111
          -0.050985 -1.231971 -0.495929
          0.979715 3.420334 -0.493029
          -3.508398 -0.976784 -0.500000
          -0.532021 1.090005 -0.261928
          1.399469 -3.906519 -0.490545
          -0.779291 0.676758 1.835038
          -1.163049 1.033348 -0.500000
          0.151735 -1.260837 -0.490435
          -0.027805 -0.516444 1.823699
          0.855018 3.605418 -0.500000
          0.703043 -0.080536 1.846894
          -0.453235 -0.546073 1.846732
          -0.135768 -3.920218 -0.500000
          1.011210 3.761663 -0.500000
          1.203567 0.238040 1.846672
          -0.184028 -3.959046 -0.499338
          -0.497700 0.146423 1.828219
          -0.158083 -1.654672 -0.468168
          0.842247 3.462955 -0.489597
          -1.003339 0.736450 1.846721
          -3.474516 -1.015300 -0.500000
          -0.615934 -0.278644 1.828420
          0.833307 3.510667 -0.499320
          -0.965489 -3.895881 -0.498622
          -0.471506 -0.901192 1.846805
          -3.123738 1.639436 -0.369854
          1.300936 3.859499 -0.500000
          0.777820 3.544066 -0.493924
          1.391116 3.908783 -0.500000
          -0.569111 -3.955451 -0.500000
          0.146981 -1.089563 -0.490497
          -0.568064 -0.754467 1.839318
          1.118322 -3.876091 -0.490569
          1.370225 3.893878 -0.500000
          0.995944 0.195175 1.826013
          2.734064 -0.819769 -0.498536
          1.061595 3.788328 -0.500000
          2.588711 -0.933488 -0.403305
          -0.655528 -0.528160 1.843111
          -0.507955 -0.534405 1.847172
          1.363347 3.838316 -0.500000
          -0.431550 -0.852045 1.846673
          0.647096 -0.064287 1.846077
          -0.520276 1.334344 1.240329
          0.014618 -0.519543 1.829092
          0.845470 0.231350 1.829964
          -0.723463 -0.686984 1.824977
          -0.807115 -0.661977 1.846605
          -1.037380 0.779535 1.846585
          1.357033 -3.895327 -0.485121
          0.859449 0.103081 1.846619
          0.733732 0.003363 1.846595
          0.861319 -3.869672 -0.488446
          0.784784 -0.062005 1.846296
          -0.524315 0.103934 1.827721
          2.734875 -0.847017 -0.473443
          1.058632 3.751875 -0.500000
          -0.815457 -0.587900 1.846712
          -0.265511 -1.422065 -0.390989
          1.073200 3.762897 -0.500000
          0.780764 -0.065831 1.843111
          -0.478992 1.261225 1.245903
          1.251828 0.398762 1.846757
          2.863528 -1.044751 -0.479564
          0.957333 0.168112 1.846572
          -0.167882 -0.436670 1.831163
          -0.366197 -0.439648 1.830764
          -3.148424 1.531823 -0.362244
          0.838085 -3.870539 -0.492946
          -2.176169 -0.333361 -0.500000
          -3.444189 -1.038006 -0.500000
          2.531175 -0.868625 -0.500000
          0.088367 -1.132144 -0.488590
          -0.307859 1.182996 -0.277164
          -1.041421 1.336892 -0.410129
          0.971140 0.193025 1.846361
          -0.601417 0.101825 1.826213
          1.465706 3.941512 -0.500000
          -0.605766 -0.179404 1.830794
          -0.631611 -1.004136 1.819526
          0.029390 -1.047446 -0.478212
          -0.649152 -3.972140 -0.500000
          -0.809026 0.586616 1.834464
          -0.792948 1.464196 -0.390790
          1.015479 3.763420 -0.500000
          -0.926321 1.414119 -0.348088
          -1.189614 1.026161 -0.500000
          1.032198 2.854245 -0.500000
          -0.150744 -3.973249 -0.500000
          1.235823 0.501996 1.846971
          1.184031 -3.924204 -0.478406
          -0.361403 1.126076 -0.295561
          1.293525 -3.942258 -0.493933
          -0.506431 1.148197 -0.298486
          0.910964 -0.011837 1.846456
          2.667966 -1.174991 -0.490007
          0.822379 -3.811529 -0.486023
          -2.991961 1.618108 -0.378850
          1.003691 2.612448 -0.500000
          -2.171769 -0.325267 -0.500000
          -2.173680 -0.328532 -0.500000
          2.565854 -1.039585 -0.449465
          0.015416 -1.282290 -0.486738
          -2.165606 -0.328520 -0.500000
          -0.889937 1.242444 -0.390957
          1.200300 0.451109 1.846206
          0.313033 -0.266143 1.826758
          0.775702 -3.858494 -0.490816
          -0.456717 1.428269 1.268016
          2.495401 -0.943535 -0.495818
          0.922291 3.592306 -0.498758
          -0.121723 -3.839958 -0.500000
          -2.171847 -0.326746 -0.500000
          -0.597973 -0.987367 1.846911
          0.794310 -3.859807 -0.490473
          1.322021 -3.970038 -0.491798
          -0.510252 -3.943733 -0.474078
          -0.753922 1.371151 -0.396973
          -0.244591 -1.421282 -0.398177
          0.239321 -0.191832 1.846222
          -0.450406 1.087003 -0.244231
          -0.440965 -0.117907 1.846624
          -2.162843 -0.325115 -0.500000
          0.860168 -3.902038 -0.499803
          -0.670528 -0.967278 1.843111
          -0.436235 1.323544 1.281394
          1.237647 0.396007 1.846638
          2.631014 -1.156253 -0.481780
          0.374463 -0.245907 1.828254
          0.918373 3.690124 -0.500000
          -3.484019 -1.033939 -0.500000
          -0.844046 1.231982 -0.366363
          0.416359 -0.298898 1.846314
          -2.159065 -0.326701 -0.500000
          0.588093 -0.066143 1.846490
          0.627845 -0.104307 1.846182
          1.104653 -3.896498 -0.496159
          0.763162 0.031880 1.846611
          1.142418 2.577557 -0.492775
          -0.226756 -0.450035 1.830321
          -0.004124 -0.578885 1.825950
          -0.535202 0.449729 1.827138
          -1.920323 3.673440 -0.500000
          -0.531538 -0.112169 1.846715
          -0.663958 0.325318 1.832327
          -1.196123 1.033312 -0.500000
          0.817814 -3.888269 -0.490878
          -0.406819 1.219179 -0.279157
          -3.494016 -1.019185 -0.500000
          0.028566 -1.309982 -0.500000
          -0.573085 0.484077 1.832135
          1.108534 2.754437 -0.500000
          -0.794886 1.504505 -0.404795
          -0.351868 -0.400002 1.827498
          0.868968 2.689945 -0.479945
          -0.346472 -0.592792 1.846835
          -2.163754 -0.324575 -0.500000
          1.399548 -3.918454 -0.483427
          1.323745 -3.820079 -0.493066
          1.115098 3.771657 -0.500000
          1.110805 -3.899714 -0.489089
          -0.826219 1.272403 -0.334503
          -3.434238 -1.043363 -0.500000
          -0.664815 -1.020217 1.781000
          0.932059 3.396540 -0.495191
          -1.071031 0.688092 1.846737
          -0.004812 -0.552266 1.825218
          1.163696 3.784256 -0.500000
          -0.723020 -0.828141 1.846468
          -0.952156 0.811389 1.846568
          -0.542289 0.256375 1.831623
          -0.509291 -0.222005 1.832158
          -0.423154 -0.918148 1.846680
          1.397162 3.938056 -0.500000
          -0.251207 -3.844183 -0.491877
        </DataArray>
      </Points>
      <PointData Scalars="density">
        <DataArray type="Float64" Name="density" format="ascii">
          974.914859
          1028.517050
          1050.610253
          975.531098
          686.699056
          997.404654
          1119.394682
          933.487551
          897.558795
          822.315861
          1075.793089
          859.663907
          971.338272
          954.756516
          1019.304732
          1108.340654
          1084.083169
          750.489368
          997.841443
          899.522170
          959.357367
          1030.325257
          805.902805
          778.844075
          698.748768
          1182.015536
          856.158620
          1023.750489
          1000.758367
          1017.216779
          675.501002
          987.101236
          1062.831616
          795.985757
          1003.091037
          844.258246
          879.950818
          1018.324409
          1019.015217
          1065.752888
          1016.799435
          919.620665
          955.161894
          1011.795155
          980.655034
          863.468638
          1076.220745
          854.370399
          1000.339100
          921.181988
          988.645548
          992.726083
          1128.518327
          952.312338
          946.667947
          841.234094
          998.334183
          968.153608
          904.584338
          842.604622
          975.551845
          975.540061
          805.002956
          900.634866
          889.720394
          889.653330
          813.828200
          1093.443122
          979.858236
          927.563142
          1013.097689
          964.491649
          500.000000
          1000.237687
          720.854752
          767.935295
          997.663197
          500.000000
          950.054596
          998.926454
          992.228283
          1029.867385
          988.924291
          893.016609
          932.228994
          832.248630
          951.861153
          949.072673
          979.471288
          994.792126
          809.257962
          1026.336047
          793.131115
          930.781343
          1000.052172
          1032.994868
          870.916684
          947.700208
          997.564687
          889.488640
          1059.331352
          1144.196218
          500.000000
          1036.369088
          886.598377
          948.428535
          952.867585
          500.000000
          831.043779
          927.256155
          950.713589
          1005.569774
          995.983445
          992.927682
          834.389430
          913.074514
          1007.797855
          864.545800
          968.775996
          800.751495
          1011.023282
          1006.207136
          907.481766
          958.772072
          969.336856
          989.234666
          1091.956327
          961.589697
          994.482820
          940.601948
          876.115467
          884.061937
          999.884988
          982.558559
          633.630278
          629.472564
          951.366668
          941.031289
          1067.282454
          927.292950
          851.682104
          950.813211
          884.219523
          755.722640
          500.000000
          1031.065366
          943.282473
          996.318801
          878.869445
          500.000000
          817.875278
          875.900999
          915.358095
          921.011749
          1103.875424
          1009.717300
          844.709339
          942.486490
          887.717755
          1044.005361
          605.359466
          1003.212988
          973.081927
          970.750406
          905.246261
          909.541517
          1070.045996
          959.019271
          945.851829
          828.041164
          1045.196682
          836.274635
          941.920475
          729.126181
          500.000000
          946.307475
          781.067461
          1006.243745
          884.691198
          500.000000
          500.000000
          993.199571
          995.255411
          699.972218
          876.480029
          895.400656
          548.396764
          868.722864
          995.661518
          807.729759
          988.314072
          500.000000
          759.515802
          907.875598
          1043.768449
          957.745470
          658.147673
          951.759684
          1029.706131
          904.762889
          905.072339
          963.783874
          1005.027560
          1096.588467
          500.000000
          989.076001
          1012.370018
          916.705426
          970.397540
          1002.356392
          500.000000
          967.848115
          523.777373
          978.688768
          964.298498
          1015.138193
          500.000000
          942.701768
          1115.580864
          667.083904
          864.258045
          906.165010
          924.750884
          958.852944
          857.383055
          917.639448
          970.352566
          955.655642
          685.581196
          970.274066
          1113.928949
          875.490904
          985.979203
          995.913368
          994.209724
          877.606624
          1027.693479
          871.562401
          739.380962
          1044.553037
          1046.172236
          1000.954803
          911.191058
          1093.390046
          834.523101
          1112.506466
          500.000000
          1130.572424
          934.148134
          1034.650782
          946.397281
          718.389097
          1096.603142
          998.024467
          1074.640347
          926.109386
          846.969756
          1000.780513
          890.218149
          1044.774205
          993.752228
          1058.036216
          1045.910762
          854.666807
          988.247863
          924.359180
          884.217087
          1075.910716
          995.440264
          976.998058
          1006.999877
          1085.713217
          1052.056543
          1056.956909
          940.944112
          937.368157
          895.778073
          1027.759736
          965.199618
          727.094957
          1031.488245
          901.825635
          905.580073
          901.925534
          861.078582
          959.294343
          1056.668575
          1091.945235
          500.000000
          1038.192137
          835.515366
          982.574772
          792.808099
          881.487538
          927.970289
          873.648496
          939.446609
          914.889787
          865.955595
          976.568577
          946.795566
          781.289870
          1003.385064
          1007.172328
          957.786371
          1014.594815
          1047.836869
          946.992552
          937.142605
          939.556936
          696.726476
          1027.262019
          1085.977571
          1063.579463
          987.494866
          823.071010
          809.479048
          966.918181
          500.000000
          1000.074166
          835.503073
          835.313159
          915.195666
          851.261321
          835.425524
          1017.330308
          864.398825
          987.824393
          958.324664
          939.406984
          812.469014
          1228.794404
          933.230265
          835.291602
          1009.974128
          972.998391
          994.656562
          899.355950
          968.327238
          680.257426
          952.970808
          1052.652381
          1020.238734
          835.001889
          1041.746394
          941.029309
          972.717236
          927.685842
          745.387827
          977.439326
          1085.327805
          982.888062
          954.509436
          834.019140
          834.073556
          794.265090
          796.468055
          991.648648
          1097.163457
          686.374261
          1091.641852
          876.483407
          918.702288
          1003.510866
          1097.340324
          902.844155
          946.330058
          1009.036447
          979.257947
          985.517902
          825.087484
          983.138161
          970.819753
          800.781931
          1087.023804
          940.124648
          938.615827
          835.339410
          917.433815
          961.389257
          1041.304336
          995.146813
          987.805112
          973.571937
          789.230389
          949.013477
          839.098413
          931.470480
          1064.232476
          1000.475506
          994.980022
          910.898365
          1095.976618
          999.579538
          987.042626
          1038.366211
        </DataArray>
        <DataArray type="Float64" Name="pressure" format="ascii">
          -752.554238
          855.511498
          1518.307595
          -734.067048
          -9399.028307
          -77.860377
          3581.840468
          -1995.373480
          -3073.236158
          -5330.524168
          2273.792675
          -4210.082792
          -859.851839
          -1357.304515
          579.141956
          3250.219632
          2522.495070
          -7485.318974
          -64.756715
          -3014.334895
          -1219.278979
          909.757701
          -5822.915852
          -6634.677755
          -9037.536958
          5460.466068
          -4315.241415
          712.514666
          22.751003
          516.503369
          -9734.969929
          -386.962916
          1884.948488
          -6120.427276
          92.731096
          -4672.252616
          -3601.475450
          549.732264
          570.456519
          1972.586626
          503.983050
          -2411.380043
          -1345.143187
          353.854657
          -580.348991
          -4095.940868
          2286.622347
          -4368.888028
          10.173010
          -2364.540354
          -340.633554
          -218.217513
          3855.549804
          -1430.629848
          -1599.961584
          -4762.977188
          -49.974515
          -955.391765
          -2862.469850
          -4721.861353
          -733.444664
          -733.798158
          -5849.911326
          -2980.954031
          -3308.388186
          -3310.400104
          -5585.153994
          2803.293664
          -604.252907
          -2173.105753
          392.930682
          -1065.250530
          -15000.000000
          7.130621
          -8374.357446
          -6961.941143
          -70.104087
          -15000.000000
          -1498.362110
          -32.206379
          -233.151523
          896.021551
          -332.271262
          -3209.501732
          -2033.130183
          -5032.541098
          -1444.165404
          -1527.819796
          -615.861361
          -156.236230
          -5722.261152
          790.081422
          -6206.066563
          -2076.559707
          1.565165
          989.846031
          -3872.499473
          -1568.993771
          -73.059400
          -3315.340812
          1779.940564
          4325.886542
          -15000.000000
          1091.072630
          -3402.048689
          -1547.143937
          -1413.972450
          -15000.000000
          -5068.686633
          -2182.315355
          -1478.592329
          167.093235
          -120.496643
          -212.169550
          -4968.317099
          -2607.764575
          233.935645
          -4063.625997
          -936.720110
          -5977.455152
          330.698453
          186.214071
          -2775.547010
          -1236.837849
          -919.894313
          -322.960028
          2758.689799
          -1152.309095
          -165.515385
          -1781.941551
          -3716.535975
          -3478.141882
          -3.450370
          -523.243234
          -10991.091671
          -11115.823072
          -1458.999961
          -1769.061337
          2018.473626
          -2181.211492
          -4449.536877
          -1475.603680
          -3473.414322
          -7328.320797
          -15000.000000
          931.960992
          -1701.525823
          -110.435969
          -3633.916654
          -15000.000000
          -5463.741672
          -3722.970022
          -2539.257143
          -2369.647523
          3116.262708
          291.518986
          -4658.719819
          -1725.405295
          -3368.467362
          1320.160822
          -11839.216027
          96.389650
          -807.542187
          -877.487832
          -2842.612172
          -2713.754491
          2101.379890
          -1229.421871
          -1624.445140
          -5158.765081
          1355.900457
          -4911.760953
          -1742.385764
          -8126.214566
          -15000.000000
          -1610.775757
          -6567.976179
          187.312358
          -3459.264069
          -15000.000000
          -15000.000000
          -204.012884
          -142.337680
          -9000.833468
          -3705.599125
          -3137.980314
          -13548.097072
          -3938.314093
          -130.154455
          -5768.107244
          -350.577829
          -15000.000000
          -7214.525940
          -2763.732046
          1313.053465
          -1267.635890
          -10255.569802
          -1447.209468
          891.183937
          -2857.113340
          -2847.829838
          -1086.483780
          150.826811
          2897.654022
          -15000.000000
          -327.719972
          371.100554
          -2498.837207
          -888.073797
          70.691749
          -15000.000000
          -964.556549
          -14286.678797
          -639.336968
          -1071.045049
          454.145790
          -15000.000000
          -1718.946950
          3467.425906
          -9987.482884
          -4072.258643
          -2815.049693
          -2257.473491
          -1234.411686
          -4278.508343
          -2470.816560
          -889.423007
          -1330.330746
          -9432.564132
          -891.778006
          3417.868456
          -3735.272875
          -420.623906
          -122.598958
          -173.708276
          -3671.801285
          830.804359
          -3853.127975
          -7818.571134
          1336.591101
          1385.167087
          28.644080
          -2664.268261
          2801.701371
          -4964.306985
          3375.193971
          -15000.000000
          3917.172710
          -1975.555976
          1039.523466
          -1608.081575
          -8448.327092
          2898.094247
          -59.265980