<?xml version="1.0"?>
<VTKFile type="PolyData" version="0.1" byte_order="LittleEndian">
  <PolyData>
    <Piece NumberOfPoints="396" NumberOfVerts="396" NumberOfLines="0" NumberOfStrips="0" NumberOfPolys="0">
      <Points>
        <DataArray type="Float64" NumberOfComponents="3" format="ascii">
          0.367947 0.153762 51.782911
          0.034372 0.617458 51.605072
          -0.093151 0.033928 51.293732
          -0.093098 0.028306 51.964505
          0.034382 0.617493 51.653220
          0.368163 0.153861 51.475280
          0.034611 -0.023271 52.246245
          -0.593480 -0.207032 51.421633
          0.279180 -0.020046 51.333693
          0.280053 -0.019063 51.926123
          -0.593918 -0.207585 51.836268
          0.034144 -0.024879 51.011301
          -0.093084 -0.335385 51.660543
          0.279613 -0.296184 51.609339
          -0.439016 -0.041635 51.587324
          -0.438998 -0.041868 51.670832
          0.279620 -0.296241 51.648446
          -0.093144 -0.335388 51.598320
          -0.093084 0.335385 51.660543
          0.279613 0.296184 51.609339
          -0.439016 0.041635 51.587324
          -0.438998 0.041868 51.670832
          0.279620 0.296241 51.648446
          -0.093144 0.335388 51.598320
          0.034611 0.023271 52.246245
          -0.593480 0.207032 51.421633
          0.279180 0.020046 51.333693
          0.280053 0.019063 51.926123
          -0.593918 0.207585 51.836268
          0.034144 0.024879 51.011301
          0.367947 -0.153762 51.782911
          0.034372 -0.617458 51.605072
          -0.093151 -0.033928 51.293732
          -0.093098 -0.028306 51.964505
          0.034382 -0.617493 51.653220
          0.368163 -0.153861 51.475280
          0.419150 0.259991 51.889128
          -0.773620 0.225523 51.442662
          -0.693621 -0.154430 51.536469
          -0.693652 -0.154678 51.721690
          -0.772579 0.224070 51.816721
          0.418644 0.259804 51.369325
          -0.773079 -0.187053 51.853962
          -0.759784 0.237102 51.866264
          0.866536 -0.460769 51.169347
          0.866210 -0.460175 52.089296
          -0.759529 0.237111 51.392052
          -0.773072 -0.187023 51.404427
          -0.693582 -0.092449 51.474709
          0.866352 -0.460420 51.168268
          -0.111772 0.324243 51.954121
          -0.111922 0.325239 51.304625
          0.865963 -0.458996 52.089672
          -0.693685 -0.092770 51.783801
          -0.693582 0.092449 51.474709
          0.866352 0.460420 51.168268
          -0.111772 -0.324243 51.954121
          -0.111922 -0.325239 51.304625
          0.865963 0.458996 52.089672
          -0.693685 0.092770 51.783801
          -0.773079 0.187053 51.853962
          -0.759784 -0.237102 51.866264
          0.866536 0.460769 51.169347
          0.866210 0.460175 52.089296
          -0.759529 -0.237111 51.392052
          -0.773072 0.187023 51.404427
          0.419150 -0.259991 51.889128
          -0.773620 -0.225523 51.442662
          -0.693621 0.154430 51.536469
          -0.693652 0.154678 51.721690
          -0.772579 -0.224070 51.816721
          0.418644 -0.259804 51.369325
          1.193538 2.333597 53.962814
          -0.570337 0.415732 52.016249
          0.725617 -0.412237 51.752042
          0.725938 -0.412536 51.506135
          -0.570207 0.415513 51.242315
          1.193734 2.333531 49.295685
          -0.569577 0.387733 52.043952
          -0.509666 -0.338873 51.290377
          -0.050860 0.165279 51.091860
          -0.050864 0.164432 52.166062
          -0.508895 -0.338589 51.967866
          -0.570927 0.386189 51.212724
          0.725728 0.123013 51.216707
          -0.050822 -0.537167 51.793924
          -0.747253 0.432084 52.061072
          -0.746881 0.431994 51.197197
          -0.050899 -0.537035 51.464195
          0.725816 0.122907 52.041537
          0.725728 -0.123013 51.216707
          -0.050822 0.537167 51.793924
          -0.747253 -0.432084 52.061072
          -0.746881 -0.431994 51.197197
          -0.050899 0.537035 51.464195
          0.725816 -0.122907 52.041537
          -0.569577 -0.387733 52.043952
          -0.509666 0.338873 51.290377
          -0.050860 -0.165279 51.091860
          -0.050864 -0.164432 52.166062
          -0.508895 0.338589 51.967866
          -0.570927 -0.386189 51.212724
          1.193538 -2.333597 53.962814
          -0.570337 -0.415732 52.016249
          0.725617 0.412237 51.752042
          0.725938 0.412536 51.506135
          -0.570207 -0.415513 51.242315
          1.193734 -2.333531 49.295685
          -0.258825 -0.303786 51.325382
          -0.620859 0.084955 51.084212
          -0.646902 -0.476742 51.897033
          -0.646923 -0.476850 51.362680
          -0.621180 0.085793 52.174228
          -0.258680 -0.303800 51.932976
          -0.620894 -0.544671 51.714336
          -0.644469 -0.379214 51.249997
          -0.721524 0.013436 52.132795
          -0.721247 0.014093 51.125370
          -0.644627 -0.379059 52.008242
          -0.621113 -0.545461 51.544937
          -0.647236 0.267093 51.152288
          -0.721091 0.503376 51.642496
          -0.527204 0.311749 51.941436
          -0.526902 0.311800 51.317909
          -0.721683 0.503949 51.614287
          -0.646549 0.267164 52.105914
          -0.647236 -0.267093 51.152288
          -0.721091 -0.503376 51.642496
          -0.527204 -0.311749 51.941436
          -0.526902 -0.311800 51.317909
          -0.721683 -0.503949 51.614287
          -0.646549 -0.267164 52.105914
          -0.620894 0.544671 51.714336
          -0.644469 0.379214 51.249997
          -0.721524 -0.013436 52.132795
          -0.721247 -0.014093 51.125370
          -0.644627 0.379059 52.008242
          -0.621113 0.545461 51.544937
          -0.258825 0.303786 51.325382
          -0.620859 -0.084955 51.084212
          -0.646902 0.476742 51.897033
          -0.646923 0.476850 51.362680
          -0.621180 -0.085793 52.174228
          -0.258680 0.303800 51.932976
          1.109036 2.395107 54.024328
          0.790633 0.579495 51.647558
          -0.145995 -0.296900 51.599004
          -0.145890 -0.296831 51.659167
          0.787506 0.576366 51.609326
          1.108860 2.395219 49.234001
          0.789340 0.017804 52.207223
          0.297794 -0.203236 51.425906
          0.843983 -0.349726 52.092570
          0.843902 -0.349759 51.165975
          0.297652 -0.203119 51.832265
          0.788752 0.019198 51.051418
          -0.145833 -0.030090 51.332368
          0.843672 0.463340 51.279517
          -0.540981 0.217695 51.846810
          -0.540897 0.217705 51.411484
          0.844406 0.463470 51.979040
          -0.146057 -0.030064 51.926101
          -0.145833 0.030090 51.332368
          0.843672 -0.463340 51.279517
          -0.540981 -0.217695 51.846810
          -0.540897 -0.217705 51.411484
          0.844406 -0.463470 51.979040
          -0.146057 0.030064 51.926101
          0.789340 -0.017804 52.207223
          0.297794 0.203236 51.425906
          0.843983 0.349726 52.092570
          0.843902 0.349759 51.165975
          0.297652 0.203119 51.832265
          0.788752 -0.019198 51.051418
          1.109036 -2.395107 54.024328
          0.790633 -0.579495 51.647558
          -0.145995 0.296900 51.599004
          -0.145890 0.296831 51.659167
          0.787506 -0.576366 51.609326
          1.108860 -2.395219 49.234001
          -0.000000 1.994307 53.623515
          -0.000000 0.321846 51.883874
          -0.000000 -0.332337 51.946476
          0.000000 -0.331913 51.311499
          0.000000 0.320660 51.373017
          0.000000 1.994310 49.634898
          0.000000 0.253806 51.951073
          0.000000 -0.283562 51.345653
          -0.000000 -0.455247 51.430740
          0.000000 -0.455229 51.828218
          0.000000 -0.283762 51.912982
          -0.000000 0.257040 51.308577
          -0.000000 0.317727 51.297261
          0.000000 -0.196811 51.173297
          0.000000 -0.178707 51.450691
          -0.000000 -0.178537 51.807939
          -0.000000 -0.200679 52.083770
          -0.000000 0.317246 51.961514
          0.000000 -0.317727 51.297261
          -0.000000 0.196811 51.173297
          -0.000000 0.178707 51.450691
          -0.000000 0.178537 51.807939
          0.000000 0.200679 52.083770
          0.000000 -0.317246 51.961514
          -0.000000 -0.253806 51.951073
          -0.000000 0.283562 51.345653
          0.000000 0.455247 51.430740
          -0.000000 0.455229 51.828218
          -0.000000 0.283762 51.912982
          0.000000 -0.257040 51.308577
          -0.000000 -1.994307 53.623515
          0.000000 -0.321846 51.883874
          -0.000000 0.332337 51.946476
          -0.000000 0.331913 51.311499
          -0.000000 -0.320660 51.373017
          -0.000000 -1.994310 49.634898
          -1.109036 2.395107 54.024328
          -0.790633 0.579495 51.647558
          0.145995 -0.296900 51.599004
          0.145890 -0.296831 51.659167
          -0.787506 0.576366 51.609326
          -1.108860 2.395219 49.234001
          -0.789340 0.017804 52.207223
          -0.297794 -0.203236 51.425906
          -0.843983 -0.349726 52.092570
          -0.843902 -0.349759 51.165975
          -0.297652 -0.203119 51.832265
          -0.788752 0.019198 51.051418
          0.145833 -0.030090 51.332368
          -0.843672 0.463340 51.279517
          0.540981 0.217695 51.846810
          0.540897 0.217705 51.411484
          -0.844406 0.463470 51.979040
          0.146057 -0.030064 51.926101
          0.145833 0.030090 51.332368
          -0.843672 -0.463340 51.279517
          0.540981 -0.217695 51.846810
          0.540897 -0.217705 51.411484
          -0.844406 -0.463470 51.979040
          0.146057 0.030064 51.926101
          -0.789340 -0.017804 52.207223
          -0.297794 0.203236 51.425906
          -0.843983 0.349726 52.092570
          -0.843902 0.349759 51.165975
          -0.297652 0.203119 51.832265
          -0.788752 -0.019198 51.051418
          -1.109036 -2.395107 54.024328
          -0.790633 -0.579495 51.647558
          0.145995 0.296900 51.599004
          0.145890 0.296831 51.659167
          -0.787506 -0.576366 51.609326
          -1.108860 -2.395219 49.234001
          0.258825 -0.303786 51.325382
          0.620859 0.084955 51.084212
          0.646902 -0.476742 51.897033
          0.646923 -0.476850 51.362680
          0.621180 0.085793 52.174228
          0.258680 -0.303800 51.932976
          0.620894 -0.544671 51.714336
          0.644469 -0.379214 51.249997
          0.721524 0.013436 52.132795
          0.721247 0.014093 51.125370
          0.644627 -0.379059 52.008242
          0.621113 -0.545461 51.544937
          0.647236 0.267093 51.152288
          0.721091 0.503376 51.642496
          0.527204 0.311749 51.941436
          0.526902 0.311800 51.317909
          0.721683 0.503949 51.614287
          0.646549 0.267164 52.105914
          0.647236 -0.267093 51.152288
          0.721091 -0.503376 51.642496
          0.527204 -0.311749 51.941436
          0.526902 -0.311800 51.317909
          0.721683 -0.503949 51.614287
          0.646549 -0.267164 52.105914
          0.620894 0.544671 51.714336
          0.644469 0.379214 51.249997
          0.721524 -0.013436 52.132795
          0.721247 -0.014093 51.125370
          0.644627 0.379059 52.008242
          0.621113 0.545461 51.544937
          0.258825 0.303786 51.325382
          0.620859 -0.084955 51.084212
          0.646902 0.476742 51.897033
          0.646923 0.476850 51.362680
          0.621180 -0.085793 52.174228
          0.258680 0.303800 51.932976
          -1.193538 2.333597 53.962814
          0.570337 0.415732 52.016249
          -0.725617 -0.412237 51.752042
          -0.725938 -0.412536 51.506135
          0.570207 0.415513 51.242315
          -1.193734 2.333531 49.295685
          0.569577 0.387733 52.043952
          0.509666 -0.338873 51.290377
          0.050860 0.165279 51.091860
          0.050864 0.164432 52.166062
          0.508895 -0.338589 51.967866
          0.570927 0.386189 51.212724
          -0.725728 0.123013 51.216707
          0.050822 -0.537167 51.793924
          0.747253 0.432084 52.061072
          0.746881 0.431994 51.197197
          0.050899 -0.537035 51.464195
          -0.725816 0.122907 52.041537
          -0.725728 -0.123013 51.216707
          0.050822 0.537167 51.793924
          0.747253 -0.432084 52.061072
          0.746881 -0.431994 51.197197
          0.050899 0.537035 51.464195
          -0.725816 -0.122907 52.041537
          0.569577 -0.387733 52.043952
          0.509666 0.338873 51.290377
          0.050860 -0.165279 51.091860
          0.050864 -0.164432 52.166062
          0.508895 0.338589 51.967866
          0.570927 -0.386189 51.212724
          -1.193538 -2.333597 53.962814
          0.570337 -0.415732 52.016249
          -0.725617 0.412237 51.752042
          -0.725938 0.412536 51.506135
          0.570207 -0.415513 51.242315
          -1.193734 -2.333531 49.295685
          -0.419150 0.259991 51.889128
          0.773620 0.225523 51.442662
          0.693621 -0.154430 51.536469
          0.693652 -0.154678 51.721690
          0.772579 0.224070 51.816721
          -0.418644 0.259804 51.369325
          0.773079 -0.187053 51.853962
          0.759784 0.237102 51.866264
          -0.866536 -0.460769 51.169347
          -0.866210 -0.460175 52.089296
          0.759529 0.237111 51.392052
          0.773072 -0.187023 51.404427
          0.693582 -0.092449 51.474709
          -0.866352 -0.460420 51.168268
          0.111772 0.324243 51.954121
          0.111922 0.325239 51.304625
          -0.865963 -0.458996 52.089672
          0.693685 -0.092770 51.783801
          0.693582 0.092449 51.474709
          -0.866352 0.460420 51.168268
          0.111772 -0.324243 51.954121
          0.111922 -0.325239 51.304625
          -0.865963 0.458996 52.089672
          0.693685 0.092770 51.783801
          0.773079 0.187053 51.853962
          0.759784 -0.237102 51.866264
          -0.866536 0.460769 51.169347
          -0.866210 0.460175 52.089296
          0.759529 -0.237111 51.392052
          0.773072 0.187023 51.404427
          -0.419150 -0.259991 51.889128
          0.773620 -0.225523 51.442662
          0.693621 0.154430 51.536469
          0.693652 0.154678 51.721690
          0.772579 -0.224070 51.816721
          -0.418644 -0.259804 51.369325
          -0.367947 0.153762 51.782911
          -0.034372 0.617458 51.605072
          0.093151 0.033928 51.293732
          0.093098 0.028306 51.964505
          -0.034382 0.617493 51.653220
          -0.368163 0.153861 51.475280
          -0.034611 -0.023271 52.246245
          0.593480 -0.207032 51.421633
          -0.279180 -0.020046 51.333693
          -0.280053 -0.019063 51.926123
          0.593918 -0.207585 51.836268
          -0.034144 -0.024879 51.011301
          0.093084 -0.335385 51.660543
          -0.279613 -0.296184 51.609339
          0.439016 -0.041635 51.587324
          0.438998 -0.041868 51.670832
          -0.279620 -0.296241 51.648446
          0.093144 -0.335388 51.598320
          0.093084 0.335385 51.660543
          -0.279613 0.296184 51.609339
          0.439016 0.041635 51.587324
          0.438998 0.041868 51.670832
          -0.279620 0.296241 51.648446
          0.093144 0.335388 51.598320
          -0.034611 0.023271 52.246245
          0.593480 0.207032 51.421633
          -0.279180 0.020046 51.333693
          -0.280053 0.019063 51.926123
          0.593918 0.207585 51.836268
          -0.034144 0.024879 51.011301
          -0.367947 -0.153762 51.782911
          -0.034372 -0.617458 51.605072
          0.093151 -0.033928 51.293732
          0.093098 -0.028306 51.964505
          -0.034382 -0.617493 51.653220
          -0.368163 -0.153861 51.475280
        </DataArray>
      </Points>
      <PointData Scalars="density">
        <DataArray type="Float64" Name="density" format="ascii">
          756.369474
          691.153503
          998.926913
          1001.116033
          691.152474
          757.294839
          692.204894
          940.925589
          722.951929
          721.117974
          941.434845
          690.099768
          1000.020392
          722.271098
          692.262417
          691.766295
          721.814054
          1000.060701
          1000.020392
          722.271098
          692.262417
          691.766295
          721.814054
          1000.060701
          692.204894
          940.925589
          722.951929
          721.117974
          941.434845
          690.099768
          756.369474
          691.153503
          998.926913
          1001.116033
          691.152474
          757.294839
          738.587403
          777.355752
          765.029862
          765.120897
          779.986211
          738.597105
          778.876603
          843.164074
          500.000000
          500.000000
          843.844863
          778.534160
          764.775526
          500.000000
          843.998586
          843.525310
          500.000000
          765.304412
          764.775526
          500.000000
          843.998586
          843.525310
          500.000000
          765.304412
          778.876603
          843.164074
          500.000000
          500.000000
          843.844863
          778.534160
          738.587403
          777.355752
          765.029862
          765.120897
          779.986211
          738.597105
          500.000000
          756.652141
          827.655672
          828.773667
          756.181443
          500.000000
          756.361436
          821.066512
          731.803143
          736.180574
          820.672515
          756.578896
          828.321870
          733.901136
          736.455877
          736.639987
          734.059447
          827.894116
          828.321871
          733.901136
          736.455877
          736.639987
          734.059447
          827.894116
          756.361436
          821.066512
          731.803143
          736.180574
          820.672515
          756.578896
          500.000000
          756.652141
          827.655672
          828.773667
          756.181443
          500.000000
          694.079050
          607.976780
          739.609024
          740.180755
          606.408229
          693.603670
          607.303435
          975.657274
          678.585231
          679.226139
          976.527377
          607.564435
          740.384517
          679.491245
          927.726629
          927.116330
          678.819475
          739.568590
          740.384517
          679.491245
          927.726628
          927.116330
          678.819475
          739.568590
          607.303435
          975.657274
          678.585231
          679.226139
          976.527377
          607.564435
          694.079050
          607.976780
          739.609024
          740.180755
          606.408229
          693.603670
          500.000000
          574.640915
          892.890251
          892.854891
          582.617388
          500.000000
          578.021776
          780.407808
          569.559196
          569.756167
          779.655805
          579.498863
          892.129816
          570.270779
          929.261345
          929.006179
          567.937395
          893.572310
          892.129816
          570.270779
          929.261345
          929.006179
          567.937395
          893.572310
          578.021776
          780.407808
          569.559196
          569.756167
          779.655805
          579.498862
          500.000000
          574.640914
          892.890251
          892.854891
          582.617389
          500.000000
          500.000000
          1001.693463
          996.187524
          996.845260
          1002.223305
          500.000000
          1003.369128
          1078.542223
          931.403947
          929.629685
          1077.857545
          1000.581430
          996.768125
          931.578124
          997.862256
          997.721342
          929.405834
          996.269407
          996.768125
          931.578124
          997.862256
          997.721342
          929.405834
          996.269407
          1003.369128
          1078.542223
          931.403948
          929.629685
          1077.857545
          1000.581430
          500.000000
          1001.693463
          996.187524
          996.845260
          1002.223305
          500.000000
          500.000000
          574.640914
          892.890251
          892.854891
          582.617388
          500.000000
          578.021776
          780.407808
          569.559196
          569.756167
          779.655805
          579.498862
          892.129816
          570.270779
          929.261345
          929.006179
          567.937395
          893.572310
          892.129816
          570.270779
          929.261345
          929.006179
          567.937395
          893.572310
          578.021776
          780.407808
          569.559196
          569.756167
          779.655805
          579.498862
          500.000000
          574.640914
          892.890251
          892.854891
          582.617389
          500.000000
          694.079050
          607.976780
          739.609024
          740.180755
          606.408229
          693.603670
          607.303435
          975.657274
          678.585231
          679.226139
          976.527377
          607.564435
          740.384516
          679.491245
          927.726629
          927.116330
          678.819475
          739.568590
          740.384517
          679.491245
          927.726628
          927.116330
          678.819476
          739.568590
          607.303435
          975.657274
          678.585231
          679.226139
          976.527377
          607.564435
          694.079050
          607.976781
          739.609024
          740.180755
          606.408229
          693.603670
          500.000000
          756.652141
          827.655672
          828.773667
          756.181443
          500.000000
          756.361436
          821.066512
          731.803143
          736.180574
          820.672515
          756.578896
          828.321870
          733.901136
          736.455877
          736.639987
          734.059447
          827.894116
          828.321870
          733.901136
          736.455877
          736.639987
          734.059447
          827.894116
          756.361436
          821.066512
          731.803143
          736.180574
          820.672515
          756.578896
          500.000000
          756.652141
          827.655671
          828.773667
          756.181443
          500.000000
          738.587403
          777.355752
          765.029862
          765.120897
          779.986211
          738.597105
          778.876603
          843.164074
          500.000000
          500.000000
          843.844863
          778.534160
          764.775526
          500.000000
          843.998586
          843.525310
          500.000000
          765.304412
          764.775526
          500.000000
          843.998586
          843.525310
          500.000000
          765.304412
          778.876604
          843.164074
          500.000000
          500.000000
          843.844863
          778.534161
          738.587403
          777.355752
          765.029862
          765.120897
          779.986211
          738.597105
          756.369474
          691.153503
          998.926913
          1001.116033
          691.152474
          757.294839
          692.204894
          940.925589
          722.951929
          721.117974
          941.434845
          690.099768
          1000.020392
          722.271098
          692.262417
          691.766295
          721.814054
          1000.060701
          1000.020392
          722.271098
          692.262417
          691.766295
          721.814054
          1000.060701
          692.204894
          940.925589
          722.951929
          721.117974
          941.434845
          690.099768
          756.369474
          691.153503
          998.926913
          1001.116033
          691.152474
          757.294839
        </DataArray>
        <DataArray type="Float64" Name="pressure" format="ascii">
          -7308.915777
          -9265.394901
          -32.192612
          33.481003
          -9265.425785
          -7281.154824
          -9233.853169
          -1772.232342
          -8311.442122
          -8366.460791
          -1756.954643
          -9297.006958
          0.611756
          -8331.867061
          -9232.127477
          -9247.011139
          -8345.578375
          1.821026
          0.611755
          -8331.867061
          -9232.127477
          -9247.011139
          -8345.578374
          1.821026
          -9233.853169
          -1772.232343
          -8311.442121
          -8366.460791
          -1756.954644
          -9297.006958
          -7308.915777
          -9265.394901
          -32.192612
          33.481003
          -9265.425785
          -7281.154824
          -7842.377919
          -6679.327440
          -7049.104149
          -7046.373100
          -6600.413667
          -7842.086845
          -6633.701896
          -4705.077789
          -15000.000000
          -15000.000000
          -4684.654111
          -6643.975188
          -7056.734223
          -15000.000000
          -4680.042430
          -4694.240703
          -15000.000000
          -7040.867630
          -7056.734223
          -15000.000000
          -4680.042430
          -4694.240702
          -15000.000000
          -7040.867630
          -6633.701898
          -4705.077789
          -15000.000000
          -15000.000000
          -4684.654111
          -6643.975187
          -7842.377919
          -6679.327439
          -7049.104149
          -7046.373100
          -6600.413668
          -7842.086845
          -15000.000000
          -7300.435763
          -5170.329851
          -5136.789979
          -7314.556707
          -15000.000000
          -7309.156925
          -5368.004644
          -8045.905699
          -7914.582775
          -5379.824545
          -7302.633116
          -5150.343888
          -7982.965920
          -7906.323697
          -7900.800382
          -7978.216601
          -5163.176511
          -5150.343884
          -7982.965923
          -7906.323698
          -7900.800382
          -7978.216605
          -5163.176507
          -7309.156925
          -5368.004644
          -8045.905701
          -7914.582774
          -5379.824545
          -7302.633116
          -15000.000000
          -7300.435763
          -5170.329852
          -5136.789981
          -7314.556707
          -15000.000000
          -9177.628504
          -11760.696586
          -7811.729290
          -7794.577359
          -11807.753121
          -9191.889892
          -11780.896952
          -730.281777
          -9642.443064
          -9623.215836
          -704.178691
          -11773.066946
          -7788.464505
          -9615.262662
          -2168.201145
          -2186.510107
          -9635.415739
          -7812.942312
          -7788.464505
          -9615.262660
          -2168.201146
          -2186.510108
          -9635.415736
          -7812.942312
          -11780.896955
          -730.281777
          -9642.443064
          -9623.215836
          -704.178691
          -11773.066949
          -9177.628503
          -11760.696585
          -7811.729291
          -7794.577360
          -11807.753120
          -9191.889891
          -15000.000000
          -12760.772558
          -3213.292485
          -3214.353275
          -12521.478367
          -15000.000000
          -12659.346725
          -6587.765769
          -12913.224125
          -12907.314988
          -6610.325851
          -12615.034124
          -3236.105519
          -12891.876638
          -2122.159652
          -2129.814622
          -12961.878136
          -3192.830690
          -3236.105520
          -12891.876641
          -2122.159652
          -2129.814622
          -12961.878141
          -3192.830689
          -12659.346726
          -6587.765770
          -12913.224127
          -12907.314986
          -6610.325851
          -12615.034137
          -15000.000000
          -12760.772578
          -3213.292483
          -3214.353274
          -12521.478338
          -15000.000000
          -15000.000000
          50.803897
          -114.374273
          -94.642190
          66.699137
          -15000.000000
          101.073835
          2356.266694
          -2057.881579
          -2111.109438
          2335.726336
          17.442911
          -96.956246
          -2052.656290
          -64.132309
          -68.359741
          -2117.824993
          -111.917788
          -96.956245
          -2052.656293
          -64.132309
          -68.359741
          -2117.824991
          -111.917787
          101.073835
          2356.266693
          -2057.881573
          -2111.109438
          2335.726335
          17.442912
          -15000.000000
          50.803901
          -114.374274
          -94.642192
          66.699138
          -15000.000000
          -15000.000000
          -12760.772583
          -3213.292484
          -3214.353275
          -12521.478347
          -15000.000000
          -12659.346725
          -6587.765771
          -12913.224127
          -12907.314990
          -6610.325852
          -12615.034130
          -3236.105520
          -12891.876642
          -2122.159653
          -2129.814623
          -12961.878140
          -3192.830690
          -3236.105520
          -12891.876641
          -2122.159652
          -2129.814622
          -12961.878140
          -3192.830691
          -12659.346727
          -6587.765770
          -12913.224127
          -12907.314986
          -6610.325850
          -12615.034131
          -15000.000000
          -12760.772584