<?xml version="1.0"?>
<VTKFile type="PolyData" version="0.1" byte_order="LittleEndian">
  <PolyData>
    <Piece NumberOfPoints="686" NumberOfVerts="686" NumberOfLines="0" NumberOfStrips="0" NumberOfPolys="0">
      <Points>
        <DataArray type="Float64" NumberOfComponents="3" format="ascii">
          -2.161381 -1.039616 7.280400
          -2.044723 2.035826 5.216899
          1.253929 3.839798 1.841980
          -1.421591 -2.609686 6.352544
          -0.647397 -3.420865 6.633631
          -0.754939 -0.519450 7.449817
          -1.364216 3.898324 3.844027
          -2.134232 -0.976473 7.337342
          -0.819200 1.570516 6.031294
          -4.862690 -2.068111 6.384371
          -4.355782 -3.965573 6.256294
          -0.858014 1.666872 5.992604
          -1.421169 0.081460 7.526681
          -2.072102 0.507610 6.982861
          -2.164009 -1.025284 7.326425
          -1.404005 0.284239 10.423437
          3.166317 -3.733088 5.561503
          -4.879028 -2.033850 6.393227
          -3.138426 -0.372041 4.076773
          -4.472171 -3.957449 6.091071
          -2.061261 0.499921 7.006433
          -2.763544 -0.560519 6.790688
          -0.842787 1.542038 7.973509
          -1.434701 0.099925 7.504447
          0.614653 -3.882602 5.078819
          -2.117979 -0.907292 7.297839
          -5.921031 -1.227225 5.109430
          -4.874988 -2.066573 6.393779
          -2.179541 -0.909290 7.119062
          -3.045666 -3.639208 8.512815
          -2.997906 -0.696171 7.134822
          -2.226382 -0.972991 7.170542
          0.882528 3.795510 5.882616
          -5.963583 3.651948 6.911965
          -2.106984 0.498714 7.008992
          -2.795320 -0.611079 6.789715
          -0.690721 1.593631 5.977660
          -4.137815 2.486167 7.540526
          -2.793933 -0.573146 6.787950
          -1.643485 3.979568 7.957608
          -1.464812 0.120813 7.528298
          -2.066397 0.488519 6.986928
          -2.116171 -0.917863 7.133957
          -2.122234 3.696311 6.673592
          -2.065892 2.026836 5.291131
          -3.006752 -0.774839 7.172820
          -2.119370 3.679943 6.676655
          0.966571 3.859535 5.888591
          -1.372459 3.852414 3.898358
          -0.178022 -2.519434 0.000000
          -4.488548 -3.942158 6.245461
          -5.328820 -2.585538 0.000000
          -3.165528 -0.373327 4.155732
          -5.320577 -2.599656 0.000000
          -1.588554 3.944532 1.885121
          0.060660 -1.225505 0.000000
          -1.604019 3.980690 7.982677
          -4.396164 -2.253970 0.000000
          -1.321373 -2.691171 6.312059
          5.049484 -1.771144 7.396883
          -0.744125 -0.527181 7.440153
          -3.995087 -2.384472 0.000000
          -4.144123 2.514728 7.552935
          -5.240576 0.004293 0.000000
          -0.786127 -1.738129 0.000000
          -2.394960 -0.027231 0.000000
          -5.314383 -2.577876 0.000000
          -2.404416 -0.070227 0.000000
          -5.858448 -1.302455 5.171595
          -5.252484 0.004294 0.000000
          -2.046133 2.055775 5.309414
          2.357236 -2.800989 6.063498
          -5.299561 -0.049998 0.000000
          -2.371317 -0.050058 0.000000
          -5.193504 -0.050000 0.000000
          -5.839281 -1.303800 5.108904
          3.088995 -3.752483 5.475606
          -5.240587 -0.104294 0.000000
          -0.041407 1.053545 0.000000
          -2.394882 -0.072773 0.000000
          -5.062847 2.118934 0.000000
          -2.404298 -0.029712 0.000000
          -1.694414 3.968931 8.049834
          -5.252483 -0.104293 0.000000
          2.172714 3.996351 10.155646
          -4.428441 2.177392 0.000000
          -0.695471 -3.416179 6.666974
          -0.906019 1.679379 7.939324
          1.910366 -2.755621 2.195298
          -4.012083 2.459777 0.000000
          -1.484931 1.363807 7.890911
          -0.012656 2.251106 0.000000
          -0.626386 -3.236069 6.980219
          -4.544271 1.484727 0.000000
          0.511335 -3.842199 5.131301
          -4.281184 3.994313 0.002148
          0.598530 3.891408 6.863804
          -0.460181 1.180996 0.000000
          -2.540821 -1.031147 6.296442
          0.906482 3.851785 6.024860
          2.371516 -2.781715 6.243006
          -3.731930 -1.360808 0.000000
          -1.421137 0.103975 7.537433
          -0.610622 -3.451105 6.641706
          -3.133227 -0.291588 4.106684
          1.278424 3.770433 1.834233
          -4.707134 -3.351928 0.000000
          -3.065243 -3.635858 8.522412
          -4.132316 2.436817 7.527123
          3.179318 -3.759591 5.568834
          -3.976470 -2.555069 0.000000
          -2.626514 -3.801884 7.200918
          -1.366434 3.891307 3.855110
          0.831705 -1.608188 0.000000
          -1.517460 0.308137 10.465811
          1.551993 -3.184709 6.148834
          0.548507 -3.843690 5.086334
          -0.363206 -1.265047 0.000000
          -1.444211 -2.663835 6.351674
          -3.419890 -0.054202 0.000000
          -2.168990 -1.019469 7.324911
          -1.300070 3.879070 3.969563
          -2.780668 -0.603488 6.785878
          -1.372101 -2.792916 6.212036
          -2.105362 0.506823 6.995816
          -4.125011 -0.061742 0.000000
          -2.132670 -0.898240 7.161193
          -0.271908 1.024587 0.000000
          -1.342827 -2.795696 6.215401
          -1.323857 3.957546 3.946887
          -0.767964 -0.519905 7.436393
          -0.460194 1.180995 0.000000
          -2.156201 3.687972 6.703660
          2.265223 -2.698354 6.133520
          -4.288013 2.964536 0.000000
          -3.091948 -0.345138 4.136913
          -1.599700 3.978932 8.122463
          -5.895217 -1.187861 5.131768
          -3.887898 2.287518 0.000000
          -5.989057 3.543508 6.878144
          3.337787 2.660781 5.378027
          1.549303 -3.223151 6.119841
          3.071453 3.412860 5.097645
          -3.738284 0.855747 0.000000
          -4.860675 -2.031524 6.390746
          -5.971429 3.507068 6.871207
          -1.726840 3.995498 8.037093
          -0.715248 -1.773176 0.000000
          -4.383283 -2.277449 0.000000
          -3.736983 -1.368631 0.000000
          -0.580274 -3.315621 6.980500
          -3.737532 -1.363763 0.000000
          -4.033765 -2.414300 0.000000
          0.184050 -1.322289 0.000000
          -4.426570 -2.283893 0.000000
          0.423664 -2.449211 0.000000
          -0.375446 -3.723689 0.000000
          -4.392405 -3.968509 6.295981
          -0.644284 -3.915498 0.000000
          0.324576 -1.432727 0.000000
          -4.042513 -2.507955 0.000000
          -3.415596 -0.049267 0.000000
          -0.301539 -3.609862 0.000000
          -4.704837 -3.352410 0.000000
          -0.131755 -3.897357 0.000000
          -3.862499 -2.467589 0.000000
          -0.729411 -3.847265 0.000000
          -4.125333 -0.054069 0.000000
          -4.080046 2.538181 7.567510
          -3.052512 -3.622486 8.496345
          -2.133241 2.193078 8.421086
          -5.862698 -1.321570 5.076726
          -1.292788 -0.697193 7.139527
          -4.447221 -3.957867 6.102367
          -1.702925 3.953574 1.898357
          -3.418694 -0.045798 0.000000
          -0.298666 3.538528 0.000000
          -4.279742 2.966695 0.000000
          0.176529 3.902489 0.000000
          -4.030012 2.438856 0.000000
          -0.728805 3.746863 0.000000
          -4.118756 -0.056401 0.000000
          -4.385136 2.184045 0.000000
          0.120634 2.367635 0.000000
          -0.267401 3.478420 0.000000
          4.920370 3.059272 8.799333
          -0.638941 3.809306 0.000000
          -0.340540 1.407419 0.000000
          -3.888394 2.287132 0.000000
          -0.041408 1.053545 0.000000
          -4.401900 2.152230 0.000000
          -3.730628 0.849800 0.000000
          -0.872228 1.631597 8.045511
          -3.732612 0.855033 0.000000
          -4.005660 2.460260 0.000000
          -0.460189 1.180986 0.000000
          0.790562 -1.509436 0.000000
          0.352729 -3.618372 0.000000
          -4.424225 -2.261115 0.000000
          -3.731381 -1.365675 0.000000
          -4.026415 -2.529842 0.000000
          -0.730698 -3.912818 0.000000
          0.166303 -1.312232 0.000000
          -0.279624 -3.662864 0.000000
          2.240190 3.995195 10.132305
          -1.354945 -2.611367 6.301776
          -5.968224 3.574833 6.990172
          -0.745176 -0.519622 7.462651
          1.889471 -2.753509 2.167535
          -0.638042 -3.905978 0.000000
          -4.398998 -2.296198 0.000000
          -1.596351 3.999501 8.069531
          -0.210525 -2.382345 0.000000
          -0.627190 -3.265233 6.951437
          0.032052 -1.387623 0.000000
          -2.952438 -0.696340 7.097215
          -3.863102 -2.456402 0.000000
          -3.422988 -0.050733 0.000000
          -1.486471 1.369751 7.897107
          -4.072789 2.423637 7.643992
          2.211370 3.992253 10.213851
          -3.069994 -3.582144 8.529976
          -1.488966 1.376797 7.893953
          -4.125887 -0.057181 0.000000
          -4.428628 2.174904 0.000000
          -2.113220 1.995637 5.241930
          -0.104540 2.186796 0.000000
          -5.969162 3.556116 6.971029
          0.732773 1.205329 0.000000
          -1.484312 1.411222 7.910587
          -3.887067 2.294126 0.000000
          -0.213126 3.571103 0.000000
          -0.700335 1.644819 5.967459
          0.522545 3.899648 5.093488
          -1.266946 0.055988 10.192064
          -2.818180 -0.603929 6.755598
          -1.650252 3.939292 1.933601
          -0.641918 3.813559 0.000000
          -0.144474 1.418010 0.000000
          0.181691 3.475840 0.000000
          -4.385136 2.184045 0.000000
          -3.736300 0.850514 0.000000
          -3.888471 2.286921 0.000000
          -0.731217 3.811720 0.000000
          -0.281536 1.428876 0.000000
          -4.504735 -3.942160 6.096660
          -4.711775 -3.351576 0.000000
          -0.287843 -3.962910 0.000000
          0.219050 -3.731588 0.000000
          -0.336853 -3.855083 0.000000
          -3.941918 -2.378286 0.000000
          0.617813 -3.803888 5.103599
[...]
      <PointData Scalars="density">
        <DataArray type="Float64" Name="density" format="ascii">
          1026.058341
          993.417376
          1077.904323
          968.013691
          1057.606077
          830.353673
          945.898491
          967.408631
          978.140312
          817.670476
          974.147493
          940.421482
          990.768256
          1002.229162
          965.185433
          989.327320
          965.742727
          821.341760
          987.922857
          906.510455
          992.101313
          925.806236
          987.443084
          988.981400
          959.135170
          921.714539
          1054.880329
          806.626874
          977.297584
          970.391673
          1004.941993
          1010.652486
          994.497687
          979.550635
          987.547939
          987.425942
          971.103616
          1048.573734
          980.917128
          902.026372
          961.758814
          994.186562
          957.434780
          1010.747867
          1077.619576
          934.406142
          999.693461
          950.628261
          1028.240273
          1000.000000
          1112.580185
          617.881318
          991.448550
          619.239270
          984.108455
          1000.000000
          988.481304
          1000.000004
          1088.601808
          972.256709
          828.621566
          1000.000000
          998.450630
          1000.000000
          1000.000000
          1000.000000
          619.238698
          1000.000000
          1032.101033
          1000.000000
          959.258599
          989.348357
          1000.000000
          1000.000000
          1000.000000
          1067.345758
          941.678897
          1000.000000
          999.818991
          1000.000000
          500.000000
          1000.000000
          1074.886325
          1000.000000
          1011.166069
          1000.013722
          944.192636
          962.383050
          812.012549
          991.273338
          810.456525
          1009.930377
          910.876377
          500.000000
          910.751759
          500.000000
          991.047915
          999.531275
          500.000000
          1008.737259
          865.577382
          831.445465
          1005.141615
          1020.441603
          998.678044
          1037.512589
          827.311440
          995.013425
          968.284110
          941.924653
          1000.000000
          977.558248
          996.182522
          1000.000000
          986.076754
          981.695421
          1033.255607
          1000.000000
          1027.483318
          831.321136
          1001.194055
          917.901289
          985.085166
          968.663091
          992.351868
          831.539710
          1035.053481
          999.371888
          916.995919
          1011.176607
          830.515923
          999.493012
          972.581142
          916.471027
          831.329425
          1018.876755
          920.028008
          981.002986
          995.382456
          1044.057506
          1042.657728
          992.033293
          1038.632035
          831.505497
          815.332191
          901.610171
          917.958735
          1000.000000
          1000.000001
          831.445465
          1070.784681
          831.085753
          1000.000000
          1000.000000
          1000.000002
          1000.000000
          1000.000000
          954.102200
          1000.000000
          1000.000000
          1000.000000
          831.199783
          1000.000000
          829.577883
          1000.000000
          1000.000000
          1000.000000
          831.033396
          964.793390
          981.184979
          500.000000
          955.596657
          946.979042
          1004.668068
          1003.201119
          831.321133
          1000.000000
          831.329425
          1000.000000
          1014.065976
          1000.000000
          831.316179
          999.982385
          1000.126083
          1000.000000
          500.000000
          1000.000000
          999.638529
          996.213991
          999.817685
          1000.004915
          831.505497
          1121.307098
          831.028915
          997.612731
          999.519889
          1000.000000
          1000.000000
          999.999999
          831.085753
          1000.000000
          1000.000000
          1000.000000
          1000.000000
          998.086496
          969.569646
          860.401831
          830.706346
          784.940581
          1000.000000
          999.999999
          1087.237066
          1000.000000
          971.262342
          1000.000000
          933.512457
          1000.000000
          831.199784
          818.033818
          967.603182
          1060.637466
          948.379384
          816.938117
          831.400668
          1000.013951
          1001.434779
          980.353153
          969.603394
          1000.000000
          785.829000
          1008.648662
          1000.000000
          1014.453045
          1007.475375
          951.848940
          941.734368
          1036.503736
          1000.000000
          1000.048874
          1000.000000
          999.982794
          831.028915
          995.634224
          1000.000000
          1000.308138
          898.546636
          830.205908
          1000.000000
          1000.000000
          1000.000000
          1000.000000
          969.441881
          827.899375
          1000.000000
          1000.000000
          941.357771
          1000.000000
          1000.000000
          1000.000000
          981.646099
          1000.000000
          1000.000000
          1001.495581
          1000.000000
          1000.000000
          989.199510
          1051.956396
          1033.085681
          986.226806
          1003.142348
          1006.296833
          1060.286984
          1063.880309
          998.275027
          999.782011
          1000.480145
          1040.641114
          999.396921
          999.815097
          991.392000
          831.191931
          999.715445
          1008.920890
          993.674433
          999.619539
          1000.841283
          1003.246946
          1003.990018
          831.191931
          1000.000000
          1000.000000
          1000.000000
          989.265829
          977.571762
          1000.000000
          1000.000000
          1000.000000
          1000.000000
          1000.000000
          1000.000000
          982.702321
          1000.000000
          949.170359
          1000.000000
          1000.000000
          1000.000000
          997.313640
          1000.000000
          991.561342
          1000.000000
          968.214773
          500.000000
          1000.000000
          1000.000000
          1016.491371
          997.419524
          500.000000
          975.824003
          1023.940562
          958.368099
          978.285169
          1053.244724
          1003.053034
          1000.000000
          959.424847
          1049.429431
          1000.588737
          1000.000000
          1018.345847
          999.574810
          988.203788
          1000.000000
          1000.000000
          1000.000000
          1040.757570
          1000.000000
          889.570502
          1008.974365
          1000.000000
          1000.000000
          1000.000000
          999.409778
          988.990364
          1000.000000
          1000.000000
          1000.000000
          1000.000000
          1000.000000
          1000.000000
          975.445353
          1000.000000
          975.038885
          1000.000000
          1000.000000
          1000.000000
          967.001215
          1000.000000
          1000.262417
          1000.000000
          979.655364
          985.245191
          1000.000000
          1000.000000
          1010.293685
          983.883605
          500.000000
          956.169584
          914.780356
          962.323260
          891.158986
          1026.517362
          1001.327227
          1000.000000
          1238.892232
          976.817136
          1000.213594
          1000.000000
          957.422477
          1000.268796
          964.514166
          1000.000000
          1000.000000
          1000.000000
          982.560994
          999.976172
          967.493971
          1008.543411
          1000.000000
          1000.000000
          1000.000000
          1000.003334
          900.143072
          985.444743
          831.307849
          1000.000000
          1000.000000
          1000.000000
          1000.000000
          969.644763
          831.212498
          1000.000000
          1000.000000
          962.528301
          1000.000000
          1000.000000
          1000.000000
          997.735967
          1000.000000
          1000.000000
          979.892434
          1000.000000
          1000.000000
          1002.305130
          500.000000
          987.209818
          827.269158
          972.749240
          1052.719217
          1006.912957
          1037.555272
          996.308612
          1010.586553
          999.975456
          1000.295391
          1000.000000
          1000.293473
          896.120161
          831.360891
          980.353153
          1011.204893
          931.804527
          1000.286243
          1000.262773
          1000.000000
          956.047294
          831.360891
          1000.000000
          1000.000000
          1000.000000
          1000.000000
          992.868720
          1000.000000
          1000.000000
          1000.000000
          831.443479
          1000.000000
          1000.000000
          1000.000000
          1000.000000
          1011.094656
          962.156261
          824.569832
          1055.307713
          1027.499410
          1000.000000
          1000.000001
          970.961728
          1000.000000
          500.000000
          1000.000000
          970.000230
          1000.000000
          831.418856
          827.494279
          957.971135
          1019.734261
          1013.417323
          1032.892243
          830.801014
          1000.000000
          948.904941
          998.855880
          991.492754
          999.503670
          984.811146
          1000.000000
          1000.000000
          1016.792690
          1018.679549
          1014.777157
          1010.145680
          1025.857570
          1000.000000
          999.980605
          1000.000000
          999.999999
          831.153184
          1000.000000
          1000.000000
          999.634223
          1000.000000
          1000.000000
          831.067828
          1022.772976
          831.442856
          1000.000000
          1000.000000
          999.999998
          1000.000000
          1000.000000
          963.152445
          1000.000000
          1000.000000
          1000.000000
          831.109778
          1000.000000
          831.210883
          1000.000000
          1000.000000
          1000.000000
          831.679196
          830.285668
          1015.804472
          962.557701
          1015.522711
          1099.828459
          993.431481
          999.692320
          831.109778
          1000.000000
          831.162549
          1000.000000
          1000.000000
          1000.000000
          830.925327
          1000.000000
          980.353153
          1000.000000
          981.759376
          1000.000000
          999.654575
          1000.000000
          999.812339
          999.999999
          831.371061
          1032.519809
          831.153184
          1000.000000
          1000.551048
          1011.266067
          1003.707416
          996.380121
          831.069303
          943.225202
          1064.126624
          959.638858
          968.403071
          831.309091
          884.161413
          1057.104384
          965.187566
          1000.000000
          1016.304900
          968.799201
          1000.000000
          957.956645
          992.930108
          988.358547
          1000.000000
          1001.115227
          831.418856
          829.855599
          952.438974
          972.296479
          964.163970
          1037.990299
          830.997933
          970.510731
          999.796554
          913.560891
          985.362964
          957.977788
          1000.000000
          962.333014
          973.196436
          831.162549
          1017.704415
          983.887956
          940.203755
          1000.000000
          965.516007
          983.661585
          916.520726
          969.780208
          831.371061
          1039.897409
          979.732625
          952.854809
          1000.000000
          1033.680139
          617.881318
          1067.348245
          619.239025
          1084.206114
          1000.000000
          950.372007
          999.999999
          964.719962
          928.267251
          993.423385
          1000.000000
          969.633996
          999.950706
          1000.000000
          1000.000000
          619.238943
          1000.000000
          823.231839
          999.996706
          827.589938
          997.634114
          1000.056401
          1000.000000
          1000.018298
          988.486460
          775.287440
          999.981332
          999.988725
          1000.000000
          618.157332
          1000.000000
          982.809175
          999.986628
          1063.327349
          999.999999
          1002.778868
          1063.155564
          810.676201
          1000.000000
          1025.768663
          1002.744306
          975.528407
          619.953553
          974.689311
          617.945453
          987.825156
          1000.000000
          996.654968
          988.386292
          980.889729
          983.593684
          822.248100
          1009.183758
          989.939026
          978.373466
          945.487093
          830.998730
          1166.953234
          1011.844137
          948.876147
          946.686040
          987.081648
          956.099574
          500.000000
          829.027006
          990.020838
          976.112007
          1072.658375
          981.294838
          1001.659618
          962.094234
          1016.790304
          1002.904984
          917.320791
          1003.635735
          1020.128182
          913.789952
          988.463515
          989.822988
          985.632140
          977.366791
          1026.878066
          983.620650
          828.668983
          831.138939
          996.814537
          500.000000
          1007.927962
          981.413287
          1006.894830
          1011.099935
          1004.058992
          824.522737
          829.387343
          967.424071
          992.591158
        </DataArray>
        <DataArray type="Float64" Name="pressure" format="ascii">
          3127.000894
          -789.914894
          9348.518761
          -3838.357087
          6912.729281
          -20357.559195
          -6492.181106
          -3910.964333
          -2623.162525
          -21879.542896
          -3102.300900
          -7149.422148
          -1107.809255
          267.499412
          -4177.747988
          -1280.721623
          -4110.872736
          -21438.988815
          -1449.257105
          -11218.745348
          -947.842446
          -8903.251691
          -1506.829931
          -1322.232003
          -4903.779637
          -9394.255276
          6585.639478
          -23204.775063
          -2724.289887
          -3552.999292
          593.039160
          1278.298325
          -660.277599
          -2453.923805
          -1494.247334
          -1508.886916
          -3467.566133
          5828.848059
          -2289.944669
          -11756.835388
          -4588.942371
          -697.612576
          -5107.826441
          1289.743993
          9314.349097
          -7871.262997
          -36.784717
          -5924.608682
          3388.832747
          0.000000
          13509.622214
          -45854.241875
          -1026.174039
          -45691.287612
          -1906.985422
          -0.000000
          -1382.243494
          0.000520
          10632.217003
          -3329.194967
          -20565.412077
          0.000000
          -185.924409
          -0.000000
          0.000000
          0.000000
          -45691.356238
          -0.000000
          3852.123978
          -0.000000
          -4888.968177
          -1278.197204
          -0.000000
          0.000000
          -0.000000
          8081.490913
          -6998.532339
          -0.000000
          -21.721093
          0.000000
          -60000.000000
          -0.000000
          8986.358954
          -0.000000
          1339.928255
          1.646641
          -6696.883740
          -4514.034028
          -22558.494142
          -1047.199461
          -22745.217059
          1191.645297
          -10694.834790
          -60000.000000
          -10709.788865
          -60000.000000
          -1074.250196
          -56.246993
          -60000.000000
          1048.471058
          -16130.714209
          -20226.544158
          616.993807
          2452.992344
          -158.634760
          4501.510671
          -20722.627207
          -598.389013
          -3805.906795
          -6969.041693
          0.000000
          -2693.010199
          -458.097304
          0.000000
          -1670.789494
          -2196.549464
          3990.672818
          0.000000
          3297.998109
          -20241.463640
          143.286659
          -9851.845271
          -1789.780128
          -3760.429080
          -917.775787
          -20215.234766
          4206.417728
          -75.373389
          -9960.489703
          1341.192804
          -20338.089252
          -60.838543
          -3290.262948
          -10023.476721
          -20240.469036
          2265.210616
          -9596.639049
          -2279.641629
          -554.105287
          5286.900777
          5118.927375
          -956.004823
          4635.844182
          -20219.340308
          -22160.137114
          -11806.779438
          -9844.951821
          0.000000
          0.000068
          -20226.544158
          8494.161740
          -20269.709614
          0.000000
          0.000000
          0.000211
          -0.000000
          0.000000
          -5507.736046
          -0.000000
          0.000000
          0.000000
          -20256.026090
          0.000000
          -20450.654068
          0.000000
          -0.000000
          0.000000
          -20275.992421
          -4224.793192
          -2257.802573
          -60000.000000
          -5328.401102
          -6362.514910
          560.168212
          384.134247
          -20241.464032
          0.000000
          -20240.469036
          0.000000
          1687.917154
          0.000000
          -20242.058495
          -2.113846
          15.129979
          0.000000
          -60000.000000
          0.000000
          -43.376471
          -454.321041
          -21.877792
          0.589854
          -20219.340308
          14556.851756
          -20276.530248
          -286.472318
          -57.613306
          0.000000
          0.000000
          -0.000123
          -20269.709614
          0.000000
          -0.000000
          0.000000
          0.000000
          -229.620539
          -3651.642503
          -16751.780297
          -20315.238471
          -25807.130330
          -0.000000
          -0.000114
          10468.447913
          -0.000000
          -3448.519002
          -0.000000
          -7978.505124
          0.000000
          -20256.025886
          -21835.941858
          -3887.618200
          7276.495922
          -6194.473868
          -21967.425997
          -20231.919872
          1.674076
          172.173499
          -2357.621622
          -3647.592685
          -0.000000
          -25700.520060