<?xml version="1.0"?>
<VTKFile type="PolyData" version="0.1" byte_order="LittleEndian">
  <PolyData>
    <Piece NumberOfPoints="686" NumberOfVerts="686" NumberOfLines="0" NumberOfStrips="0" NumberOfPolys="0">
      <Points>
        <DataArray type="Float64" NumberOfComponents="3" format="ascii">
          -0.911036 -0.027516 32.169728
          -0.670221 -0.052909 32.393949
          -0.054650 -0.038236 32.382255
          -0.562225 -0.487867 32.264410
          -0.486367 -0.445032 32.219358
          -0.584113 -0.005587 32.435260
          -0.106924 0.182313 32.675024
          -0.793344 -0.045302 32.222976
          -0.388775 -0.334363 32.259903
          -1.348419 -0.130772 32.469027
          -0.852726 0.000073 32.218879
          -0.240690 -0.026971 32.258861
          -1.258431 0.019931 32.274710
          -1.336171 -0.054622 33.175021
          -1.159262 -0.075867 32.161367
          -0.152688 -0.144370 32.254168
          0.045854 -0.240036 32.596719
          -1.365330 -0.124788 32.584694
          -0.386132 0.019098 32.849409
          -0.496913 -0.205820 32.391410
          -1.311641 -0.070368 33.161866
          -1.156108 -0.006136 32.110531
          -0.254238 -0.078992 31.518567
          -1.286883 -0.034359 32.298785
          -0.123038 -0.258016 32.066385
          -1.342843 0.004103 32.339207
          -0.462293 -0.065993 32.333847
          -1.275880 -0.026735 32.640735
          -1.222593 -0.055430 32.169076
          -0.392677 -0.214361 32.333910
          -0.404645 -0.080708 32.656238
          -1.265372 0.011025 32.410249
          -0.422404 -0.022860 32.940040
          -0.511341 0.053753 32.601588
          -1.298549 -0.035324 33.176843
          -0.709835 -0.070557 32.300548
          -0.235941 -0.014966 32.294344
          -1.262007 0.038905 32.534292
          -0.943525 -0.060940 32.161420
          -0.015351 0.187739 32.229567
          -1.232887 -0.109427 32.457305
          -1.338487 -0.048666 33.151381
          -0.919796 -0.060639 32.155881
          -0.517591 0.344719 32.403150
          -0.317686 -0.016721 32.692262
          -0.272555 -0.168636 32.264674
          -0.454367 0.351223 32.349716
          -0.411371 0.315670 32.481766
          -0.331568 0.045227 32.641847
          -0.225122 -1.625183 30.795114
          -0.563412 -0.500680 32.299875
          -4.828047 -3.066970 32.350761
          -0.233143 -0.167792 32.770397
          -4.828121 -3.067369 32.313555
          -0.147256 0.133544 32.466435
          0.073516 -0.952610 33.009203
          -0.481756 0.159762 32.534050
          -2.767801 -1.482729 31.082461
          -0.461586 -0.507303 32.379708
          0.142182 -0.333477 32.406199
          0.040072 -0.252861 32.600252
          -2.441035 -1.558972 33.741620
          -1.255243 0.014985 32.585603
          -4.828254 -0.031414 29.314364
          -0.443242 -1.079567 32.000826
          -4.718300 -0.069482 32.334447
          -4.816271 -3.018971 32.331603
          -4.726100 -0.070964 32.308625
          0.117584 -0.338423 32.400420
          -4.827978 -0.031378 35.348980
          -0.633001 -0.042562 31.343818
          -0.350691 -0.075142 31.513363
          -4.816292 -0.050000 29.363190
          -4.713826 -0.050002 32.346499
          -4.816119 -0.050000 35.300575
          -0.556613 -0.178887 32.407108
          0.040738 0.058672 32.829269
          -4.828254 -0.068586 29.314364
          -0.050163 0.840138 31.956365
          -4.718300 -0.030516 32.334446
          -4.816271 2.918971 32.331603
          -4.726100 -0.029035 32.308625
          -0.358309 0.300065 32.285116
          -4.827978 -0.068622 35.348980
          0.035266 -0.061272 31.987241
          -2.767771 1.382704 31.082455
          -0.614583 -0.155310 32.309733
          -0.101330 0.668198 32.528868
          -0.136300 -0.118234 32.805227
          -2.487757 1.486658 33.843665
          -1.205581 -0.031026 32.580294
          -0.056647 1.368078 30.877626
          -0.258831 -0.041379 32.421905
          -4.828047 2.966970 32.350761
          0.199592 -0.078528 33.105112
          -4.828121 2.967369 32.313555
          0.075615 0.401705 32.373034
          -0.257041 0.879495 32.890216
          -0.057261 -0.136938 32.468711
          -0.386016 0.221927 32.443440
          -0.263803 -0.022849 31.504025
          -2.441793 -3.053420 32.332789
          -1.336024 -0.164254 32.515035
          -0.154220 -0.183798 32.473264
          -0.071391 -0.178385 32.672979
          -0.335016 -0.098956 31.490600
          -2.631758 -1.990451 30.259716
          -0.068522 -0.246592 32.071646
          -0.627553 -0.090650 32.269908
          0.175064 -0.164406 32.723708
          -2.348104 -1.599582 33.923705
          -0.154033 -0.222078 32.406946
          -0.369258 0.213669 32.459594
          0.449692 -0.942722 32.131477
          -0.117338 -0.030732 31.970435
          -0.177800 -0.121009 33.012929
          0.182236 -0.298898 32.577261
          -0.357212 -0.891205 33.113956
          -0.509859 -0.558028 32.276667
          -2.442434 -0.047091 25.961701
          -1.063356 0.005129 32.109066
          0.078886 0.038553 32.457020
          -0.678509 0.005419 31.367440
          -0.270350 -0.255394 32.284888
          -1.300056 -0.040692 33.162824
          -2.442364 -0.052081 38.697846
          -0.772715 -0.052427 32.248746
          -0.081677 0.827198 31.974112
          -0.311113 -0.419198 32.237433
          -0.319607 0.021135 32.985601
          -0.002954 0.128010 32.874694
          -0.204758 0.737079 32.876997
          -0.291764 0.357230 32.262812
          -0.347195 -0.056132 31.457705
          -2.641498 1.896461 30.245879
          -0.155642 0.065121 32.543912
          -0.528393 0.310358 32.423885
          -0.122996 0.142722 32.683816
          -2.495574 1.461317 33.832096
          -0.232149 0.360163 32.264386
          0.454529 0.350293 32.432023
          -0.082952 -0.080492 33.019550
          -0.272278 -0.012669 31.495404
          -2.446052 2.906483 32.333682
          -1.355578 -0.072423 32.614325
          -0.523224 0.207530 32.473257
          -0.358873 0.123605 32.555548
          -0.446826 -1.009169 31.989586
          -2.742533 -1.457971 31.052003
          -2.452607 -3.050058 32.331335
          -0.060991 -0.525228 32.314252
          -2.455013 -3.054493 32.325782
          -2.483183 -1.589045 33.813384
          0.257763 -0.903738 33.006938
          -2.756126 -1.495187 31.067065
          0.195145 -1.539573 30.706612
          -0.212923 -2.363027 30.019418
          -0.156564 0.070646 31.889681
          -0.391633 -2.403541 34.656511
          0.265329 -0.985097 32.914430
          -2.394359 -1.510001 33.779189
          -2.439497 -0.042417 25.966056
          -0.126897 -2.299127 30.015410
          -2.644389 -2.005531 30.255320
          -0.029247 -2.775010 32.268499
          -2.427595 -1.521505 33.898890
          -0.441356 -2.318262 34.609859
          -2.440854 -0.049731 38.705008
          -0.570667 -0.069256 31.419466
          -0.222387 -0.121595 32.716436
          0.003459 -0.023690 29.804737
          -0.426181 0.020362 32.889219
          0.012442 -0.060764 35.071220
          -0.266941 -0.123997 32.870426
          0.313032 -0.114598 32.949744
          -2.452534 -0.052406 25.966094
          -0.124766 2.196692 30.014124
          -2.633436 1.886901 30.272947
          0.098190 2.709231 32.310709
          -2.346309 1.517431 33.775238
          -0.441341 2.218264 34.609850
          -2.456814 -0.050077 38.698962
          -2.756136 1.395177 31.066987
          0.160172 1.594851 30.733574
          -0.202539 2.276651 30.018811
          0.061672 -0.072718 31.951433
          -0.391634 2.303540 34.656518
          -0.234959 0.898047 32.933635
          -2.303781 1.473984 33.847196
          -0.157730 0.760159 31.963801
          -2.742533 1.358004 31.052004
          -2.450629 2.903522 32.325343
          -0.097813 0.556880 32.539859
          -2.446865 2.891391 32.338798
          -2.391386 1.449308 33.753865
          -0.233852 0.784542 32.844955
          0.389007 -0.977759 32.105329
          0.102461 -2.404027 30.055628
          -2.776936 -1.466076 31.082337
          -2.446158 -3.056499 32.334313
          -2.343254 -1.570029 33.923517
          -0.463469 -2.362463 34.605598
          0.092304 -0.911451 33.013749
          -0.199621 -2.352927 30.005796
          0.165607 -0.205887 32.036706
          -0.323068 -0.394929 32.228075
          -0.629667 -0.052032 32.444288
          -0.433462 -0.060358 32.669984
          -0.147135 -0.139155 33.032146
          -0.374761 -2.384584 34.633964
          -2.763087 -1.454963 31.081260
          -0.472502 -0.219636 32.301075
          -0.235488 -1.537143 30.807232
          -0.132866 -0.184593 32.488910
          -0.066656 -0.869781 32.984809
          -1.250106 -0.152841 32.495813
          -2.372625 -1.634290 33.791101
          -2.460517 -0.058085 25.967362
          -0.577945 -0.029998 31.356915
          -0.615922 -0.053169 31.474544
          0.272784 0.238352 32.285018
          -0.429105 -0.074954 32.350167
          -0.548636 -0.015260 32.500363
          -2.456130 -0.048110 38.686238
          -2.763117 1.354975 31.081316
          -0.159901 0.003519 32.326476
          -0.175838 1.479960 30.762303
          0.025191 0.145430 32.097582
          0.379378 0.827792 33.324703
          -1.329443 0.003616 32.290677
          -2.340448 1.396674 33.848527
          -0.189521 2.251946 30.003393
          -0.196420 -0.140604 31.903223
          -0.445978 0.376285 32.405164
          -0.165444 0.248883 32.264190
          -0.508451 -0.009527 32.592361
          -0.074198 -0.180931 32.988252
          -0.374759 2.284579 34.633958
          -0.008985 0.705462 31.949070
          0.095393 2.288266 30.072354
          -2.776927 1.366064 31.082365
          -2.452024 2.908975 32.326401
          -2.384034 1.383421 33.864510
          -0.463483 2.262461 34.605610
          -0.106198 0.776464 32.845672
[...]
      <PointData Scalars="density">
        <DataArray type="Float64" Name="density" format="ascii">
          1042.743283
          1022.924113
          1013.609476
          963.124593
          1047.955531
          1009.962844
          940.147034
          997.936016
          1085.735044
          1024.761499
          969.510576
          931.114853
          1012.154614
          998.806930
          1022.289026
          1062.752925
          1009.317904
          980.558576
          1019.543917
          975.214921
          1002.416181
          1006.491542
          978.512958
          1046.047599
          983.309827
          934.572177
          989.242531
          958.889516
          1024.196737
          1041.012652
          1006.914031
          1038.807886
          1017.591556
          971.651012
          991.291808
          1013.813699
          1011.344824
          963.089537
          1004.944667
          994.496211
          1038.449505
          991.532432
          1000.069848
          974.164669
          1002.749320
          992.759795
          1005.943901
          1045.671084
          970.524663
          1013.027065
          970.130144
          590.436083
          993.942923
          590.419377
          951.941062
          990.152067
          1031.128179
          1010.925653
          1000.630729
          991.130134
          961.469707
          951.012886
          1014.483302
          590.225529
          1035.195997
          1000.985241
          572.114422
          987.850601
          939.438857
          590.413185
          1051.157520
          1011.320043
          571.731136
          1002.078654
          572.065866
          1015.999437
          1042.490196
          590.225529
          977.883680
          1000.984169
          572.114421
          987.849484
          1035.234745
          590.413185
          978.092612
          1010.971215
          993.007206
          967.799989
          1046.470295
          999.745633
          989.481067
          1012.570151
          982.275730
          590.436083
          1037.369139
          590.419377
          1050.278722
          983.234978
          1033.892106
          1068.481075
          1005.481950
          829.327888
          999.903066
          1002.786117
          1035.731000
          1010.399481
          825.714398
          1018.297182
          948.074937
          1007.705744
          963.183263
          1070.045482
          1002.953404
          956.079443
          1047.160398
          987.792241
          911.826935
          1014.111775
          989.130783
          818.989027
          961.371446
          987.900707
          987.437255
          1056.435156
          1003.057431
          817.800847
          985.589339
          1016.700479
          1008.444586
          986.217233
          991.127716
          991.840880
          1031.581506
          992.582590
          825.237051
          981.637941
          996.200722
          1014.395490
          954.128107
          996.994254
          991.525103
          1029.367742
          997.365162
          825.416833
          978.943520
          925.997460
          967.209129
          996.947957
          979.129645
          827.139667
          984.232787
          828.974605
          953.602230
          1003.696996
          996.258761
          984.019111
          969.704908
          986.525183
          995.863518
          1006.217311
          1046.514183
          826.418508
          979.291422
          818.669736
          966.798106
          1028.345359
          1004.235489
          823.727171
          1011.605741
          962.193968
          1021.047609
          949.487173
          1069.118697
          1006.968663
          991.913776
          826.809005
          974.895913
          812.440269
          1009.717851
          938.091113
          1004.234915
          822.503469
          996.261234
          942.730229
          971.185953
          951.630261
          995.860710
          1029.553185
          993.087443
          1041.163866
          979.171779
          823.856058
          987.490026
          812.000999
          996.700923
          993.049710
          994.333373
          986.095467
          1006.038393
          829.372014
          982.803226
          1008.703387
          993.346544
          1011.258575
          971.803409
          1012.779808
          1011.529757
          1040.088751
          982.002795
          998.890275
          1005.701034
          1003.107507
          1014.412549
          996.826498
          996.586791
          995.374745
          948.244165
          820.579503
          976.498242
          983.095217
          974.989842
          995.021174
          987.143652
          818.687029
          1005.686734
          974.143931
          1033.334529
          990.238672
          994.073398
          942.404962
          1004.555411
          1019.543776
          954.307157
          1010.403859
          1043.250722
          992.860062
          979.607718
          998.889066
          974.579053
          981.682362
          1006.040529
          819.679136
          999.787095
          1008.698931
          969.374846
          877.612019
          824.963931
          1002.440593
          1041.600404
          998.815813
          1015.000413
          1013.752663
          814.957830
          948.123682
          1004.764104
          1049.630497
          1008.638081
          972.002316
          1003.723215
          1005.119119
          980.029472
          970.460248
          1048.680076
          975.626463
          1004.697587
          1020.904052
          1016.532922
          1009.359396
          992.483796
          997.476830
          1018.621475
          963.420496
          994.756672
          1019.493368
          937.038687
          1057.231414
          948.764548
          1010.938795
          1005.462114
          1016.508293
          822.352326
          956.312875
          1002.689858
          999.270119
          983.255513
          947.070412
          990.910991
          1017.884254
          825.238745
          1018.620155
          991.693892
          994.188328
          964.025174
          1007.297783
          1023.229049
          939.570009
          1001.221756
          979.270023
          1037.091964
          1017.444393
          1014.470202
          953.639744
          967.326389
          997.319910
          978.305609
          1015.231800
          1086.964591
          1020.939832
          1007.472437
          1013.800330
          941.756984
          995.600010
          1005.920288
          1018.511292
          982.583867
          1005.883821
          1011.375256
          1020.753605
          1005.564950
          999.467573
          971.311022
          984.581032
          1009.315743
          1008.708475
          1026.343007
          997.669061
          968.051327
          1018.513591
          935.393584
          1020.031447
          1033.959746
          991.505290
          1014.137926
          1015.230733
          992.568987
          1008.901869
          1019.151140
          1025.520500
          1012.230144
          992.145122
          963.515128
          993.410372
          970.481467
          1015.255967
          1042.814010
          978.728666
          985.868805
          974.274261
          1002.883360
          1013.734422
          1055.752212
          995.591172
          996.986257
          1022.442201
          1015.232848
          981.484891
          984.157129
          1003.778155
          1013.833065
          1030.171332
          1018.416404
          977.456767
          1018.509962
          966.839967
          1016.195878
          1042.406872
          974.823750
          1019.620628
          959.549354
          1152.870802
          989.844575
          1013.801277
          1008.656350
          930.310284
          1033.996606
          1038.476430
          1018.511982
          1058.383516
          1005.888048
          973.224340
          991.514504
          1002.025296
          1015.231760
          1017.045224
          984.908921
          1049.210865
          1076.253387
          1008.800754
          994.988262
          969.045821
          1052.535707
          993.341530
          991.211683
          819.943526
          1019.961632
          969.030645
          941.752252
          975.899388
          994.262861
          817.007880
          1023.103145
          1031.966595
          986.796003
          997.218145
          971.272648
          941.239980
          1001.057457
          1012.637494
          1002.965811
          988.248674
          999.093146
          1017.246631
          1002.912846
          991.359983
          985.366705
          1016.428963
          904.117649
          994.104824
          1061.890392
          1058.780252
          1015.648580
          1018.801417
          1043.428529
          1018.164380
          1003.584060
          986.223713
          957.533465
          829.176328
          1032.231551
          932.144039
          960.097824
          991.976623
          977.074210
          933.860252
          1048.351181
          829.748104
          1030.611030
          974.157197
          992.861333
          972.994540
          925.808236
          1013.689924
          987.251495
          1006.040549
          829.921609
          962.360150
          1008.708616
          1014.354840
          1011.802990
          1012.273255
          992.815233
          1022.349750
          1034.960763
          1063.894634
          998.893913
          1005.687793
          934.089765
          988.006532
          1078.414346
          1013.327860
          984.595438
          1038.673037
          827.495681
          990.034329
          976.678257
          991.834907
          962.787787
          982.407477
          776.090651
          1005.686980
          997.436544
          999.950332
          988.487827
          986.897980
          957.223719
          970.774097
          1019.553638
          1008.277833
          1010.987651
          1071.244568
          959.939132
          1008.258895
          998.892033
          999.747949
          981.701222
          1006.040521
          829.688190
          983.998455
          1008.703481
          956.622920
          1043.515716
          979.171299
          829.244086
          986.098847
          826.431042
          1073.948028
          998.471486
          996.260841
          956.877836
          969.917942
          1016.074206
          995.869182
          973.850700
          985.587362
          828.673141
          979.953139
          794.748407
          1003.567413
          994.767878
          1004.232714
          808.457734
          1004.612431
          1037.210180
          1002.671806
          1003.775624
          956.468540
          1006.169402
          991.005102
          825.462114
          974.909929
          830.838816
          997.020735
          958.459113
          1004.232825
          808.095041
          996.261198
          994.562834
          971.186870
          939.986608
          995.865521
          970.924703
          990.098054
          1004.980569
          979.170942
          829.266769
          1008.063159
          829.537713
          977.374685
          1005.448305
          913.858744
          1014.707774
          1009.375817
          828.151819
          927.360105
          932.939660
          957.019705
          1014.468391
          810.710776
          1031.316713
          1110.339446
          1027.267368
          1040.267711
          1007.873133
          911.994866
          1002.438890
          968.970500
          1012.686752
          985.656709
          950.321091
          1068.507206
          828.708024
          994.151298
          910.891692
          1023.150958
          1005.197046
          1002.040799
          816.604911
          943.806398
          1049.471736
          971.580482
          996.049759
          1019.949841
          1005.832651
          1020.182028
          988.163842
          830.046063
          1005.250541
          946.061310
          974.628373
          1078.541358
          998.545530
          1016.045640
          925.785301
          993.630958
          829.798266
          975.912519
          1004.286538
          1020.915949
          1054.156784
          968.501999
          590.436083
          1045.969928
          590.419377
          971.929779
          1011.983859
          934.165705
          1010.970425
          974.215813
          1013.170013
          965.772818
          958.284315
          896.071167
          590.225529
          1017.745141
          988.891114
          572.114421
          1006.382614
          972.500851
          590.413185
          980.052972
          973.334092
          571.731136
          990.963398
          572.065866
          941.820346
          958.067853
          590.225529
          1030.710932
          988.325879
          572.114421
          1006.387787
          1003.864387
          590.413185
          1078.558144
          1010.970137
          1005.656585
          962.080253
          997.952157
          1024.937455
          966.601049
          1075.516617
          942.478591
          590.436083
          971.461050
          590.419377
          1003.230004
          1015.166688
          978.207820
          977.409901
          916.999010
          996.877688
          953.966289
          960.272608
          993.061251
          980.697410
          990.218339
          939.330909
          987.243253
          1030.807013
          970.487503
          988.364917
          955.769694
          1014.819154
          1071.358021
          938.615052
          998.207751
          983.490115
          995.386290
          1045.366440
          994.144793
          955.084125
          942.613518
          879.393631
          994.446481
          955.138230
          1010.878123
          1015.743604
          1015.965423
          962.830399
          1035.255340
          935.680510
          993.900161
          980.841447
          958.417624
          996.714033
          974.177965
          1112.096252
          1030.530204
          1002.023991
          945.531811
          1004.526576
          1049.937202
          930.251064
          982.277737
          1010.006982
          939.748759
        </DataArray>
        <DataArray type="Float64" Name="pressure" format="ascii">
          5129.194017
          2750.893597
          1633.137084
          -4425.048830
          5754.663759
          1195.541278
          -7182.355949
          -247.678040
          10288.205267
          2971.379855
          -3658.730866
          -8266.217670
          1458.553656
          -143.168361
          2674.683083
          7530.350979
          1118.148496
          -2332.970903
          2345.270013
          -2974.209474
          289.941716
          778.985069
          -2578.444980
          5525.711852
          -2002.820797
          -7851.338800
          -1290.896318
          -4933.258123
          2903.608495
          4921.518204
          829.683731
          4656.946340
          2110.986679
          -3401.878507
          -1044.983023
          1657.643890
          1361.378835
          -4429.255540
          593.360022
          -660.454666
          4613.940541
          -1016.108210
          8.381803
          -3100.239727
          329.918435
          -868.824594
          713.268154
          5480.530049
          -3537.040491
          1563.247811
          -3584.382759
          -49147.670030
          -726.849288
          -49149.674707
          -5767.072574
          -1181.752010
          3735.381494
          1311.078317
          75.687511
          -1064.383913
          -4623.635183
          -5878.453708
          1737.996185
          -49172.936529
          4223.519656
          118.228978
          -51346.269417
          -1457.927876
          -7267.337178
          -49150.417825
          6138.902371
          1358.405211
          -51392.263629
          249.438502
          -51352.096084
          1919.932424
          5098.823474
          -49172.936531
          -2653.958342
          118.100328
          -51346.269423
          -1458.061944
          4228.169433
          -49150.417825
          -2628.886553
          1316.545773
          -839.135335
          -3864.001330
          5576.435390
          -30.524022
          -1262.272001
          1508.418158
          -2126.912345
          -49147.670023
          4484.296662
          -49149.674708
          6033.446625
          -2011.802616
          4067.052662
          8217.729025
          657.833999
          -20480.653427
          -11.632031
          334.334096
          4287.719991
          1247.937683
          -20914.272298
          2195.661806
          -6231.007598
          924.689286
          -4418.008427
          8405.457821
          354.408492
          -5270.466791
          5659.247754
          -1464.931120
          -10580.767794
          1693.412944
          -1304.306091
          -21721.316729
          -4635.426426
          -1451.915168
          -1507.529445
          6772.218769
          366.891723
          -21863.898347
          -1729.279298
          2004.057535
          1013.350316
          -1653.932081
          -1064.674098
          -979.094364
          3789.780670
          -890.089158
          -20971.553850
          -2203.447030
          -455.913392
          1727.458858
          -5504.627140
          -360.689479
          -1016.987633
          3524.129017
          -316.180547
          -20949.979999
          -2526.777578
          -8880.304811
          -3934.904540
          -366.245124
          -2504.442585
          -20743.239905
          -1892.065605
          -20523.047389
          -5567.732417
          443.639536
          -448.948647
          -1917.706626
          -3635.411088
          -1616.978082
          -496.377809
          746.077316
          5581.702002
          -20829.778996
          -2485.029320
          -21759.631657
          -3984.227314
          3401.443084
          508.258713
          -21152.739451
          1392.688870
          -4536.723876
          2525.713023
          -6061.539202
          8294.243697
          836.239546
          -970.346922
          -20782.919431
          -3012.490484
          -22507.167714
          1166.142132
          -7429.066411
          508.189796
          -21299.583732
          -448.651919
          -6872.372463
          -3457.685622
          -5804.368732
          -496.714825
          3546.382148
          -829.506896
          4939.663904
          -2499.386464
          -21137.273097
          -1501.196855
          -22559.880067
          -395.889203
          -834.034808
          -679.995239
          -1668.543928
          724.607180
          -20475.358319
          -2063.612915
          1044.406487
          -798.414672
          1351.028998
          -3383.590892
          1533.577017
          1383.570837
          4810.650159
          -2159.664560
          -133.167019
          684.124116
          372.900853
          1729.505839
          -380.820241
          -409.585119
          -555.030651
          -6210.700177
          -21530.459697
          -2820.210913
          -2028.574014
          -3001.218980
          -597.459150
          -1542.761763
          -21757.556496
          682.408133
          -3102.728312
          4000.143425