<?xml version="1.0"?>
<VTKFile type="PolyData" version="0.1" byte_order="LittleEndian" header_type="UInt32" compressor="vtkZLibDataCompressor">
  <PolyData>
    <Piece NumberOfPoints="686" NumberOfVerts="686" NumberOfLines="0" NumberOfStrips="0" NumberOfPolys="0">
      <PointData>
        <DataArray type="Float64" Name="density" format="ascii" RangeMin="572.6899211254307" RangeMax="1159.718436509258">
          989.0216367994118 1018.7437079179805 1011.535894810027 1013.8781761815621 993.8030124666981 994.459635200318
          974.946490924746 991.7243394072266 1027.6820164552234 986.0272152418356 1002.0704890657287 1017.057820736857
          1002.7367178016324 999.1511188664074 990.4646342149517 981.1414327414817 1041.3974321635476 987.1327655691001
          1048.5030172703914 1039.7560792592421 998.1299292319482 978.8915387706776 1007.0026290364625 992.2230599090968
          881.1569681036063 1005.8030003265371 979.4181228498721 978.5830863008619 1001.677327088668 1016.3579009750983
          1043.3407879239796 983.5225272275917 1017.390371145194 1035.7931729414606 1005.4784003730035 988.0263077353463
          1014.9583360245589 1000.16687197091 1015.3443564912573 932.3735937525495 995.870398541826 1000.5596800387119
          985.546015192576 997.0539131926387 983.3409262895876 1019.2004157364994 980.15482388893 997.0877468668461
          939.1494806082264 1001.0244126337066 999.2566099006563 590.8804249065196 985.4545343085031 590.8711895194668
          1018.181390414689 997.8050323087047 1005.9537195563898 1001.7884068071344 995.3308421367229 1038.008258391546
          1008.5551493935548 995.27371561599 981.936969098513 590.9279617380687 1028.0936486161968 999.3102397163964
          572.6899212020606 1004.0308342959188 1011.8161312276223 590.8935908143667 1008.0013252293868 1001.9386496448352
          572.8455423062911 998.8197600112628 572.7725695824922 1013.0047736480348 1026.397837552947 590.9279617266488
          1000.1635502753307 999.3084268710517 572.6899211254307 1004.0400753928452 996.0938249061824 590.8935908135934
          998.9557174242028 1001.833015175248 1004.2229095750711 988.9838611299521 1026.576888448782 1003.5053418215006
          1015.9966650385013 1071.4130759816355 998.1882244390273 590.8804249018855 1022.5164797812146 590.8711894591328
          962.3070499517178 1010.2606017042717 989.4552696141267 1017.6013318660047 999.486466595899 829.1929708499484
          985.1942203449095 1028.9206431788139 1024.3050394381453 1003.3345950988888 818.8202050135905 972.4329732827572
          989.0634656036435 970.9098482381006 975.4729636382851 999.0802160264169 1024.5461054939751 966.7758021187916
          1057.5604473892934 1007.2217875047353 1036.8846300069433 981.9977192215016 992.2182716638742 829.7944743044067
          1005.8627162803455 1039.8106234637032 999.4911282336881 992.8190091753617 1000.2587310619272 827.8579548258623
          998.8839396921976 979.6458980276318 1009.3589927670799 977.1070952458492 1040.928757799849 1004.8834664369767
          981.784427251232 1005.8384361507553 830.3048521042684 955.8146698541249 1061.56235105046 1010.2489897326346
          997.0810590641614 1031.0638359873594 951.4917788970414 968.9803151711341 1011.0483117244032 825.5798804636524
          976.2953721550756 1006.9357645341189 997.9492138546782 1011.993655725133 993.8916847623824 829.9225881664686
          972.1272554776847 828.5291301727302 992.6149201232126 997.7203657676948 1007.8207095286743 997.3541660010468
          1014.8254408871267 1014.2222236431394 1001.1625843651943 987.3115280174344 1004.3382482328852 827.2904160671876
          1004.446917888203 819.5547927765999 1007.8644910762297 981.3329026806099 1006.7135372713379 830.0019972782067
          1011.6302415608548 988.1497886824188 1006.5887550876301 1014.4203125666355 1013.129573814965 1012.1724313106641
          945.8799335214479 828.3232028017278 1005.9401176472637 830.7554490450068 992.9323899737643 1007.7422167528578
          1006.7125328458415 827.7333516543971 1007.9094302675998 1000.8528648813061 1000.8468693034013 952.8917005775304
          1001.1618438505784 1004.613608660004 996.00968856237 1015.6361881190923 993.7709821313599 828.5633804855121
          1000.7356483108325 825.5271889300626 1018.9880154226913 1010.6768831715716 1009.7149044079129 1006.0138641834183
          1004.0997219180732 827.147650724197 990.6787892774283 1008.1069230640411 1005.8609893611944 984.9022962528871
          1030.0625429867303 992.4585411337398 991.2945053912309 999.9878593864636 1002.8996470673519 1000.1242961859168
          1004.0380483412507 1000.4371617962088 1008.6713544961518 1026.5084903483537 1006.8096190617978 1015.1517407439005
          1014.4995615705209 829.6193487411173 993.3010296741506 998.910609557987 1024.712828483961 947.7983791627754
          1027.411697310293 828.264579830422 1003.9186348214103 982.4490280142628 1010.0022052318843 1045.6189454583669
          995.6238328827599 1029.0901447530293 1020.5995163709886 992.6453196363067 1003.8013328035622 952.26692897524
          931.7337995387538 999.3129833806074 1017.1797344129844 1000.1260895443379 980.4613617049964 995.6220066292346
          1004.3268205347134 825.3337203938557 999.9133425676091 1008.1049161772286 1012.7642259386016 1100.8351341033178
          810.8163711548978 992.4672682520193 958.3641693945195 1011.5707521310458 984.2625666781793 1008.8866264207875
          819.3776296230495 990.1455553778709 989.1557938180168 995.7140804453928 989.7640481138427 1019.3478241543066
          992.4733765879387 988.4206391904842 984.2032384432865 1012.1001946844332 1010.350393963645 1007.8098627091682
          986.7676765114777 980.6831781280491 999.8126014482018 1014.3811218712385 984.2786867009108 983.3533327125505
          996.4095393766884 989.5510230044398 966.1779011397708 1005.6486706894541 988.3425736099423 977.4237042874564
          972.9986979492851 1006.1991062494777 988.135164022383 1005.4926509608171 829.4020917656374 972.9121519375877
          1003.8979387291063 1008.8104725034832 999.1518171521253 1001.2548129945912 1014.1960723984756 999.7818752909674
          830.2275542192461 989.4085520647695 1007.3799419605368 1005.7831276987121 1007.1352776279234 972.439822512375
          991.8307094131615 993.9235078240383 1001.6883533269381 1031.6745582838535 987.5759170651575 997.1191143970749
          1016.4902148230095 1012.212778561637 1002.7240776034686 1012.4322255032962 967.2683842607804 1009.392503984142
          1005.5838241220883 1002.466030863069 1005.8624785932134 1000.2090928217701 987.0122051872487 970.0675765969461
          1000.2912722243734 1008.0716559406463 1015.0691958888577 1015.765178312466 1022.3947614133541 991.4537065545464
          986.997264893063 998.8356526277897 1027.875064195913 1006.4365218065244 1005.0095999456345 1007.7332594972623
          1001.9934039396535 1011.2948319598424 993.3000194141814 1008.0692825958394 1002.2231227897386 1009.2515362658706
          1050.8215747740928 1008.1260904400677 994.0683231559627 1009.392241626155 971.4998947249915 1001.0902443317804
          978.1323350176074 996.8262994024724 1002.0877995005816 1001.9572805070206 1007.6049493250703 993.4856348541363
          999.2838708704854 1001.5243386525204 1006.6342840383815 990.2573646099244 994.6697971552417 999.1870164918979
          990.8323675620215 981.5660804108535 1003.360392194045 927.4195458380419 1013.9811770051771 982.0199555565887
          1009.3940585227218 1012.1490186384538 1010.0590972766571 1001.5531293183432 994.1015848142252 974.9962580898473
          1026.1385102922993 995.0778495529049 1008.0739022282328 970.79806427993 998.8076968506787 991.2911762229362
          1030.8198136132655 993.9744090836294 1001.7034677718403 1017.4355717774251 970.5112237709587 999.2946787448913
          1007.5521124234866 898.2936743419037 978.3969062396748 1007.7533915725407 1008.0713132148867 999.1021120484829
          990.0409704779562 981.9031922141894 1007.9435905379003 989.3903049702811 1009.3934807279956 1022.2549820410051
          987.6618894766981 992.9090591842173 974.7099270646395 997.4985235077969 997.6349763410445 997.1106089656288
          993.9447724922206 1022.6464041513531 988.9183312407375 801.0611532123503 1002.29389612507 1028.355275346792
          986.4434156071003 994.0863372141059 961.0975803989207 811.2264362482043 995.35238073669 976.6427621807237
          941.6118849636408 997.036671906632 1008.1105839668718 1025.336869968984 1001.8132268697433 1003.1100839269657
          983.2937825537548 980.9568612868462 997.9775654226801 987.7041609397464 970.4077007459205 1002.4716784543766
          990.6917261552701 1003.6819516991598 983.477297233455 1003.2569840109267 970.9608769024269 987.6498352530347
          1001.8990761780898 987.2223580918796 1018.70911324994 977.9364654228601 999.597522226112 992.9325126858027
          987.4078403809922 820.2232758450882 934.6207087123572 974.2186920312764 1032.3946894755045 1008.8454045814183
          1003.5913998243941 988.2051127664747 991.9984154351777 825.909802999157 1007.1180311363204 1003.1211855306474
          993.7349261447266 993.9688795388997 1028.4056065129373 1003.6432429921149 1002.1290640717012 1004.3193974932907
          830.6665786542229 986.6652741798758 1008.109295692781 986.9879145105252 985.4060310924191 956.0090030622471
          953.9812506185392 1005.6242214355966 1014.208954468686 958.7813729932886 1000.1186352237047 1003.9241695454972
          995.9674403748983 986.2229402750128 959.001160591476 991.2258830664509 1061.8778967195851 985.9341936310246
          828.0814368621307 993.8582919874493 986.7241902828915 965.4841345375233 972.7297570761206 1026.773138150399
          825.635029019537 1003.9214710449245 1001.1277425313218 1023.2691744072133 1009.4985194820455 981.5710960478522
          1015.2329433248653 993.7419149930978 992.8847898883192 1046.5984243046128 933.0800200619083 971.621181989514
          1010.655842379933 1028.2769812877882 1000.1214557772842 997.9495171508471 995.8439133295722 1004.3222837690391
          829.0644715748554 1009.3675665683924 1008.10706415064 1029.152318594981 994.328033799234 993.7736594155651
          830.6769692749102 1042.3542060308673 829.7630187760129 1002.8512632134659 1016.104120905801 1007.9071614255475
          956.9758024723288 1005.6306357821945 992.7171516056559 1001.1662413746735 980.0154525818382 970.7432203907938
          826.0917811615059 1002.9603968265507 800.1812874163096 978.3951199281443 979.2718297583867 1006.7168280393096
          828.0473587906698 997.1760620541313 976.3406719696716 1012.0402178475119 969.9034248033181 996.2464382984527
          1019.456923060494 981.7431586025797 827.4081945232746 1005.2590132249944 827.2383620557804 989.5046018147606
          1001.0853838979647 1006.7149922128178 828.2003677832713 1007.9078390334274 1018.9933455458996 1000.9221450230401
          1069.3736176557868 1001.165007704288 994.2306692680611 979.6851878668078 979.816876286727 993.7732602310265
          830.5174274781776 1010.8914434454928 830.2579883269137 977.8199854744587 1016.363121142886 950.5127582650592
          1068.7863741761278 997.2014275367934 831.0486529127235 898.6393372931715 1044.4630368508938 996.7999340084326
          1004.9616996386054 766.8805416312765 998.4157573674219 980.5728366465524 994.8861299915366 982.2451687746204
          938.6429786004144 1013.8587090618406 996.7950611664407 995.982625583376 990.0152414677902 990.317367552213
          988.5137476497539 925.9123493510452 826.3898794152026 942.5918327758654 1050.650588539069 1005.9383025708943
          1045.1620782335744 999.1852137195581 828.09739960419 1046.4106859175731 1010.1222742747752 1001.4602874384366
          1027.325155972037 1018.4800302771449 1006.6158121456327 991.9863710783976 999.5751417774943 816.780829110297
          999.8434812348817 948.8590267585586 1045.1590455719088 1025.4828415075579 1003.7899506574852 999.4339647375622
          972.2355965463017 1001.7023066560005 828.7937335134042 1015.3263246371381 967.9409472951041 999.5497956344321
          1000.6233190031235 968.6649924017654 591.3526216201194 990.891937500911 591.3355296430683 999.480881525553
          1000.0155180408307 1002.7661467053545 1001.8307426713836 1022.8173400777235 1009.3641181674755 1007.7430502339416
          964.7607160038874 945.0466576499073 591.4028579223345 1013.7559889184112 1001.4685870322971 573.6316370029061
          1005.3600605199924 969.0011715916334 591.3738380593427 1014.8483702070506 1005.26375940964 573.8107871054923
          997.2963279937687 573.7221146689134 1010.5988575750582 1004.9611124272776 591.4028579150157 969.3949753704122
          1001.6905111565327 573.6316370491908 1005.4549704794734 1005.2122537716834 591.3738380584953 1018.2403731815955
          1001.8323672536154 972.7654933445142 1002.5156798903987 970.2294237614466 1009.4061499281999 982.0235931463301
          988.079478785115 973.4304514943053 591.3526216471529 1004.5371900438347 591.3355296742938 970.2965700134604
          991.1685632550848 982.0878337504197 965.0711799469408 1038.8866813858683 1032.5748527333756 988.1281412483974
          1044.3536300523185 1077.306639677217 1000.2239855350585 1003.2064660169328 1019.8475780619164 965.9391025768676
          999.6558925347235 985.1796889508963 1003.4673053721091 977.1829172770324 948.8686385332783 984.0707703033263
          1003.5107903606281 1026.235063214709 1012.3976295024222 1003.717039876887 1013.1285792629902 995.9660360495989
          953.0490449719 901.4138585518405 956.3884583053074 969.3442324128172 990.2205345363894 1048.1381186225497
          1008.2534223838336 1034.6121398213586 1128.9428231229806 1020.1209309311186 974.0519791289415 997.9933045876841
          987.0044068350005 1040.1258899782533 1159.718436509258 1000.0022133671226 990.0170781293847 947.0105709940849
          1001.3993249697959 1064.894256370174 1033.763772315272 979.8189343361098 957.4729662104024 947.9227418487856
          977.1891985505175 1035.1515976633066
        </DataArray>
        <DataArray type="Float64" Name="pressure" format="ascii" RangeMin="-51277.20946494831" RangeMax="19166.212381110963">
          -1317.4035840705847 2249.2449501576584 1384.3073772032403 1665.3811417874567 -743.6385039962306 -664.8437759618446
          -3006.4210890304867 -993.0792711328104 3321.8419746268137 -1676.7341709797256 248.45868788744156 2046.938488422843
          328.40613619588567 -101.86573603111356 -1144.2438942057925 -2263.028071022195 4967.691859625711 -1544.0681317079861
          5820.362072446969 4770.729511109057 -224.40849216622155 -2533.01534751869 840.315484375501 -933.2328109083801
          -14261.163827567238 696.3600391844557 -2469.825258015344 -2570.029643896578 201.27925064015926 1962.9481170118015
          5200.894550877556 -1977.2967326889966 2086.844537423276 4295.180752975275 657.4080447604229 -1436.8430717584397
          1795.0003229470667 20.024636509206175 1841.322778950871 -8115.168749694062 -495.55217498087586 67.16160464543009
          -1734.4781768908842 -353.53041688335907 -1999.0888452494846 2304.0498883799273 -2381.421133328404 -349.47037597846247
          -7302.062327012827 122.9295160447873 -89.20681192124903 -49094.34901121765 -1745.4558829796315 -49095.45725766398
          2181.7668497626755 -263.39612295544157 714.4463467667811 214.6088168561255 -560.2989435932477 4560.991006985514
          1026.6179272265708 -567.1541260812 -2167.563708178436 -49088.64459143176 3371.2378339436145 -82.77123403243422
          -51277.20945575272 483.7001155102553 1417.935747314682 -49092.769102276 960.1590275264152 232.6379573802251
          -51258.53492324507 -141.62879864846218 -51267.29165010093 1560.5728377641708 3167.740506353648 -49088.64459280214
          19.6260330396899 -82.98877547380016 -51277.20946494831 484.80904714142525 -468.7410112581165 -49092.769102368795
          -125.31390909566198 219.9618210297558 506.74914900852855 -1321.9366644057527 3189.2266138538434 420.6410185800678
          1919.5998046201566 8569.569117796264 -217.41306731672466 -49094.349011773746 2701.9775737457485 -49095.457264904064
          -4523.154005793867 1231.2722045126065 -1265.3676463047987 2112.1598239205605 -61.62400849212645 -20496.843498006187
          -1776.6935586108639 3470.4771814576634 2916.6047325774343 400.15141186665915 -21741.575398369147 -3308.0432060691373
          -1312.3841275627774 -3490.818211427927 -2943.2443634057836 -110.37407682997127 2945.5326592770143 -3986.9037457450077
          6907.253686715203 866.6145005682347 4426.155600833199 -2160.2736934198083 -933.8074003350903 -20424.6630834712
          703.525953641456 4777.274815644387 -61.064611957431225 -861.7188989566012 31.047727431259773 -20657.045420896524
          -133.92723693628795 -2442.492236684184 1123.0791320495928 -2747.1485704980932 4911.450935981893 586.0159724372079
          -2185.8687298521545 700.6123380906411 -20363.417747487787 -5302.239617505015 7387.482126055193 1229.878767916157
          -350.2729123006293 3727.660318483131 -5820.986532355032 -3722.362179463912 1325.7974069283864 -20930.414344361707
          -2844.5553413909283 832.2917440942683 -246.094337438617 1439.2386870159544 -732.9978285141124 -20409.28942002377
          -3344.729342677838 -20576.504379272374 -886.209585214483 -273.55610787662044 938.4851434409211 -317.50007987438494
          1779.0529064551993 1706.6668371767264 139.5101238233201 -1522.6166379078722 520.5897879462282 -20725.15007193749
          533.6301465843553 -21653.42486680801 943.738929147562 -2240.051678326813 805.6244725605529 -20399.7603266152
          1395.6289873025707 -1422.0253581097404 790.6506105156177 1730.437507996262 1575.5488577958067 1460.6917572796965
          -6494.407977426249 -20601.215663792664 712.8141176716463 -20309.346114599182 -848.1132031482821 929.0660103429309
          805.5039415009742 -20671.99780147235 949.1316321119712 102.34378575673418 101.62431640815157 -5652.995930696352
          139.42126206940884 553.6330392004857 -478.8373725155998 1876.3425742910704 -747.4821442368102 -20572.39434173855
          88.27779729990198 -20936.737328392486 2278.5618507229583 1281.2259805885924 1165.7885289495425 721.6637020101916
          491.96663016878574 -20742.28191309636 -1118.5452867085996 972.8307676849317 703.3187233433227 -1811.7244496535432
          3607.50515840763 -904.975063951224 -1044.6593530522887 -1.4568736243700187 347.95764808222884 14.915542310018282
          484.56580095008576 52.45941554505407 1040.5625395382185 3181.0188418024427 817.154287415733 1818.2088892680622
          1739.9473884625058 -20445.678151065928 -803.8764391019231 -130.72685304156494 2965.5394180753137 -6264.1945004669515
          3289.403677235159 -20608.25042034936 470.2361785692301 -2106.116638288463 1200.2646278261182 5474.273455004022
          -525.1400540688155 3490.8173703635202 2471.941964518628 -882.5616436431983 456.15993642746616 -5727.968522971196
          -8191.944055349541 -82.44199432710957 2061.5681295581317 15.130745320548158 -2344.6365954004295 -525.3592044918423
          519.2184641656104 -20959.953552737312 -10.398891886907222 972.5899412674289 1531.7071126321935 12100.216092398141
          -22702.03546141227 -903.927809757688 -4996.299672657656 1388.4902557254918 -1888.4919986184877 1066.3951704944975
          -21674.684445234056 -1182.533354655493 -1301.3047418379801 -514.3103465528611 -1228.3142263388754 2321.7388985167963
          -903.1948094473591 -1389.5232971419 -1895.6113868056173 1452.0233621319812 1242.0472756374056 937.1835251001858
          -1587.8788186226757 -2318.0186246341054 -22.48782621578357 1725.7346245486224 -1886.5575958906993 -1997.6000744939438
          -430.8552747973954 -1253.8772394672242 -4058.651863227501 677.8404827344912 -1398.891166806925 -2709.15548550523
          -3240.1562460857895 743.8927499373267 -1423.7803173140355 659.1181152980471 -20471.748988123516 -3250.5417674894716
          467.75264749275266 1057.2567004179837 -101.78194174496184 150.57755935094974 1703.5286878170746 -26.174965083914685
          -20372.69349369046 -1270.9737522276555 885.5930352644191 693.9753238454477 856.2333153508098 -3307.2212985149963
          -980.3148704206251 -729.179061115401 202.6023992325736 3800.946994062415 -1490.8899521811054 -345.70627235101256
          1978.8257787611428 1465.5334273964445 326.8893124162287 1491.8670603955434 -3927.793888706351 1127.100478097036
          670.0588946506014 295.9237035682827 703.4974311856058 25.091138612415307 -1558.5353775301564 -3591.89080836647
          34.95266692480982 968.5987128775605 1808.3035066629282 1891.821397495919 2687.3713696024925 -1025.5552134544268
          -1560.3282128324463 -139.72168466523271 3345.0077035095546 772.3826167829293 601.1519934761372 927.9911396714806
          239.2084727584188 1355.3798351810929 -803.9976702982312 968.3139115007225 266.77473476862815 1110.184351904477
          6098.588972891139 975.130852808129 -711.8012212844724 1127.0689951386066 -3420.0126330010244 130.82931981364254
          -2624.119797887115 -380.8440717033136 250.53594006978983 234.87366084247697 912.5939190084318 -781.7238175036482
          -85.93549554174842 182.92063830245297 796.1140846057742 -1169.116246809076 -639.6243413709999 -97.55802097225114
          -1100.1158925574146 -2212.0703506975815 403.2470632853938 -8709.654499434968 1677.7412406212488 -2157.605333209358
          1127.2870227266185 1457.8822366144504 1207.0916731988518 186.37551820118006 -707.8098222929702 -3000.4490292183254
          3136.621235075918 -590.6580536514093 968.8682673879339 -3504.2322864083962 -143.07637791855996 -1045.0588532476559
          3698.377633591863 -723.0709099644673 204.41613262084047 2092.2686132910167 -3538.6531474849517 -84.63855061304912
          906.2534908183943 -12204.75907897155 -2592.3712512390284 930.40698870489 968.5575857864023 -107.7465541820493
          -1195.0835426452568 -2171.6169342972717 953.2308645480316 -1273.1634035662637 1127.2176873594663 2670.5978449206077
          -1480.5732627962288 -850.9128978939225 -3034.8087522432616 -300.17717906437156 -283.8028390746558 -346.7269241245458
          -726.6273009335237 2717.568498162368 -1329.8002511114964 -23872.661614517965 275.2675350083973 3402.633041615045
          -1626.790127147965 -709.6395343072891 -4668.290352129511 -22652.82765021548 -557.7143115972058 -2802.868538313155
          -7006.573804363102 -355.59937120415725 973.2700760246144 3040.4243962780856 217.5872243691947 373.2100712358806
          -2004.7460935494246 -2285.1766455784536 -242.6921492783913 -1475.5006872304284 -3551.075910489544 296.60141452519383
          -1116.9928613675893 441.83420389917046 -1982.724331985396 390.83808131119895 -3484.6947717087733 -1482.01976963584
          227.88914137077427 -1533.317028974443 2245.0935899927936 -2647.624149256785 -48.29733286655937 -848.0984777036701
          -1511.059154280938 -21573.206898589415 -7845.514954517134 -3093.7569562468298 3887.362737060539 1061.4485497701935
          430.9679789272923 -1415.3864680230345 -960.1901477786805 -20890.823640101156 854.1637363584459 374.5422636776857
          -751.8088626328063 -723.7344553320327 3408.6727815524773 437.1891590537871 255.4876886041484 518.3276991948833
          -20320.01056149325 -1600.1670984148996 973.1154831337153 -1561.4502587369725 -1751.2762689097099 -5278.919632530351
          -5522.249925775295 674.9065722715932 1705.0745362423186 -4946.235240805363 14.236226844564044 470.9003454596632
          -483.9071550122071 -1653.247166998467 -4919.860729022876 -1052.894032025888 7425.347606350215 -1687.896764277043
          -20630.22757654432 -737.0049615060816 -1593.0971660530167 -4141.9038554971985 -3272.4291508655324 3212.7765780478876
          -20923.79651765556 470.5765253909385 135.32910375861775 2792.3009288655976 1139.8223378454577 -2211.46847425774
          1827.9531989838415 -750.9702008282648 -853.825213401692 5591.810916553532 -8030.397592571007 -3405.458161258325
          1278.7010855919607 3393.2377545345844 14.574693274098536 -246.05794189834796 -498.73040045134076 518.6740522846958
          -20512.263411017357 1124.1079882070835 972.8476980767982 3498.2782313977077 -680.6359440919141 -747.1608701321838
          -20318.763687010774 5082.504723704078 -20428.437746878448 342.15158561591124 1932.494508696118 948.8593710657051
          -5162.9037033205395 675.6762938633437 -873.9418073212937 139.9489649608222 -2398.145690179417 -3510.8135531047446
          -20868.986260619295 355.24761918607965 -23978.24551004285 -2592.5856086226895 -2487.3804289935924 806.0193647171491
          -20634.316945119623 -338.8725535042431 -2839.119363639411 1444.8261417014328 -3611.5890236018276 -450.42740418567064
          2334.8307672592773 -2190.820967690438 -20711.016657207052 631.0815869993303 -20731.396553306353 -1259.4477822287308
          130.24606775576103 805.79906553814 -20615.955866007444 948.9406840112906 2279.201465507954 110.65740276481392
          8324.834118694416 139.80092451455675 -692.3196878326689 -2437.7774559830596 -2421.974845592754 -747.208772276822
          -20337.908702618683 1306.9732134591322 -20369.04140077035 -2661.601743064957 1963.5745371463236 -5938.469008192892
          8254.364901135332 -335.8286955847916 -20274.161650473183 -12163.279524819423 5335.564422107254 -384.0079189880862
          595.4039566326492 -27974.33500424682 -190.10911590937667 -2331.2596024137065 -613.6644010156124 -2130.579747045549
          -7362.842567950274 1663.0450874208736 -384.59266002711047 -482.0849299948759 -1198.1710238651704 -1161.91589373444
          -1378.3502820295325 -8890.51807787457 -20833.21447017569 -6888.980066896147 6078.070624688289 712.5963085073136
          5419.449388028934 -97.77435365303063 -20628.312047497206 5569.282310108774 1214.6729129730284 175.23449261238966
          3279.018716644441 2217.6036332573904 793.8974574759277 -961.6354705922868 -50.982986700682886 -21986.300506764364
          -18.782251814200208 -6136.9167889729715 5419.085468629055 3057.940980906942 454.7940788982214 -67.92423149253864
          -3331.7284144437917 204.27679872005683 -20544.7519783915 1839.158956456572 -3847.0863245875034 -54.02452386814275
          74.79828037481639 -3760.2009117881516 -49037.68540558567 -1092.9674998906785 -49039.7364428318 -62.29421693364657
          1.8621648996804652 331.937604642535 219.68912056603585 2738.080809326825 1123.6941800970544 929.1660280729957
          -4228.714079533511 -6594.401082011127 -49031.65704931985 1650.7186702093395 176.23044387565642 -51164.203559651265
          643.2072623990916 -3719.859409003998 -49035.139432878874 1781.8044248460728 631.6511291567986 -51142.70554734093
          -324.4406407477527 -51153.346239730396 1271.8629090069862 595.3334912733135 -49031.65705019811 -3672.602955550533
          202.8613387839232 -51164.203554097105 654.5964575368134 625.4704526020123 -49035.13943298057 2188.8447817914584
          219.88407043384996 -3268.1407986582963 301.8815868478441 -3572.46914862641 1128.7379913839823 -2157.1688224403897
          -1430.4625457861948 -3188.345820683362 -49037.68540234165 544.4628052601638 -49039.73643908475 -3564.411598384754
          -1059.772409389825 -2149.459949949637 -4191.458406367105 4666.401766304198 3908.9823280050678 -1424.6230501923174
          5322.435606278223 9276.796761266032 26.878264207025495 384.77592203194035 2381.709367429962 -4087.307690775883
          -41.29289583317586 -1778.4373258924415 416.0766446530897 -2738.0499267561117 -6135.763376006607 -1911.5075636008442
          421.29484327537284 3148.2075857650852 1487.7155402906646 446.04478522644513 1575.4295115588275 -484.0756740481356
          -5634.114603372 -11830.336973779144 -5233.385003363114 -3678.6921104619387 -1173.5358556332676 5776.574234705959
          990.4106860600314 4153.456778563032 15473.138774757672 2414.511711734226 -3113.762504527017 -240.80344947791218
          -1559.471179799939 4815.106797390399 19166.212381110963 0.26560405471627746 -1197.9506244738377 -6358.731480709812
          167.91899637550614 7787.310764420872 4051.6526778326443 -2421.7278796668234 -5103.244054751708 -6249.270978145732
          -2737.296173937898 4218.191719596789
        </DataArray>
        <DataArray type="Float64" Name="velocity" NumberOfComponents="3" format="ascii" RangeMin="15.895099870478504" RangeMax="32.96509362663282">
          -0.0450276316011964 -0.13012148452702643 -24.13459755816315 0.3704564783817549 0.06161051638014907 -24.287674994207457
          -0.25789890314875813 0.4573570583368718 -23.777868853568776 0.11464736721270928 -0.22982655715958566 -24.411255620725512
          0.05420562795263416 -0.22700937183972264 -24.40227661802515 0.10288632729367016 -0.06650716198065024 -24.647433752369935
          -0.2884031880266252 -0.12323160380427416 -23.863445191828497 0.11031977680953968 0.14583924231480716 -24.229389131912587
          -0.15284864983604285 0.795463019440658 -24.29684062067859 -0.21991042286938833 -0.06285036766828109 -24.247888938575702
          0.21616644500263762 -0.20434321018242518 -24.170059473445484 0.09694167616981465 0.20281658213065745 -24.463777231387162
          -0.23838862649211828 -0.27935221579093994 -24.381050331616656 -0.3039406914484345 0.10282051344282772 -23.837827163385423
          0.049281517888938114 -0.05340478183088283 -23.985255633013928 -1.092535473800364 -0.38463363735100164 -25.68046641055767
          0.2932662717287871 -0.12985308364062348 -24.144972424852632 -0.12619096755580478 0.08260627995476878 -24.578498457933648
          0.29872483769554287 -0.07912528830641197 -23.670692006588197 -0.18721209470158048 -0.18241315029162042 -24.827151523185332