<?xml version="1.0"?>
<VTKFile type="PolyData" version="0.1" byte_order="LittleEndian">
  <PolyData>
    <Piece NumberOfPoints="396" NumberOfVerts="396" NumberOfLines="0" NumberOfStrips="0" NumberOfPolys="0">
      <Points>
        <DataArray type="Float64" NumberOfComponents="3" format="ascii">
          0.113250 0.183444 7.464609
          -0.348745 -0.074585 7.278603
          -0.068127 -0.375356 7.147023
          0.648988 1.206696 1.651910
          0.006206 -0.148112 1.838681
          0.671432 0.361144 7.178372
          0.570799 1.204211 1.596190
          -0.503252 -1.011112 6.864725
          0.164488 0.034795 7.258727
          1.315044 -0.188776 1.826145
          -0.112756 -0.712437 1.816712
          -0.075715 -0.401100 7.185936
          -0.084347 1.564737 7.157402
          -0.318732 0.320479 7.383345
          0.022432 -0.460198 1.836703
          0.077405 1.668212 7.156658
          -0.587947 0.089259 7.297089
          1.205293 -0.247215 1.838371
          -0.409875 -1.109598 6.883930
          -0.895585 0.323914 7.117469
          -0.562612 1.059730 1.716253
          -0.412326 -1.113361 6.780674
          0.455757 0.199509 7.429538
          1.278935 0.010926 1.832581
          0.018860 -0.777605 1.818488
          -0.040827 1.515785 7.173722
          0.377622 0.151703 6.922088
          -0.064656 0.081712 1.836990
          -0.630782 0.904288 1.837527
          -0.116692 -0.077403 7.315020
          0.081579 -0.684789 1.837920
          -0.381983 -0.111273 7.158175
          -0.096094 -0.354861 7.126215
          0.377544 -0.695126 1.831950
          -0.644014 0.818741 1.822128
          0.710666 -1.141539 7.234273
          1.032881 -0.420578 1.836703
          -0.972782 0.411404 7.017026
          -0.021337 -0.388587 7.373624
          -1.035121 0.368533 7.048721
          -0.456825 -1.202371 7.171984
          -0.539780 -1.418807 7.229807
          -1.094488 0.019277 1.824315
          0.097885 -0.326926 7.292222
          0.515346 -1.352452 7.188192
          1.071334 -0.402414 1.817609
          0.050842 0.262001 7.396053
          -0.506875 -1.417636 7.165747
          -0.406242 -0.989068 7.001796
          0.405301 0.386912 7.171283
          -0.448806 0.832264 1.824067
          -1.317283 -0.176993 1.831376
          0.627776 -0.027433 7.340415
          -0.685082 -0.088125 7.323708
          -0.945658 0.478182 7.135070
          -0.403259 0.281315 7.254707
          -0.646200 -1.340410 7.074643
          -0.562586 0.972088 1.838437
          0.371872 -0.057077 7.016423
          0.681240 0.081639 7.247722
          -1.249979 -0.277198 1.833565
          0.201008 -0.098475 7.233437
          0.379241 0.803285 6.970167
          1.267162 -0.129601 1.837531
          -0.011200 -0.464766 7.232696
          -0.747225 0.201145 7.087832
          1.306637 -0.023546 1.832386
          -0.415169 0.323171 7.300685
          0.046426 -0.427302 7.128628
          -0.585234 -1.356112 7.061493
          -0.930174 0.342787 7.006266
          0.070142 1.676025 7.222137
          5.205014 -0.715449 1.968951
          0.249126 0.271464 7.265636
          1.042764 -0.086309 1.833846
          1.298418 -0.012943 1.833403
          -1.164826 0.068365 1.830728
          4.516428 0.104077 6.291752
          0.343834 0.209103 7.017177
          -0.545511 0.031217 7.226350
          0.007816 0.259489 7.417874
          -0.826109 0.335257 7.013703
          -0.709519 0.714114 1.828625
          -0.854727 0.490090 6.980356
          0.536873 0.231982 6.908138
          0.361377 -0.742474 1.833234
          0.656440 -1.007235 7.196860
          0.429506 0.987654 7.149431
          0.355466 0.245371 7.421027
          -0.565384 0.738082 1.819837
          0.362213 1.028056 7.148632
          0.586398 1.154907 1.623645
          0.297647 1.151143 7.163740
          0.851401 -1.302840 7.138990
          -0.091021 0.041548 7.108464
          -0.384554 -1.182353 7.079081
          0.547919 0.198624 6.896441
          -0.717613 -1.353900 7.150711
          -0.403758 -0.131014 7.180925
          0.745168 0.014659 7.223031
          -0.167416 -0.792493 1.819057
          -0.566281 -1.331631 6.864109
          4.129917 0.551434 1.899432
          -0.067136 1.454470 7.110067
          1.252547 0.005740 1.822281
          1.069252 -0.408461 1.834236
          -0.661366 1.043476 1.708299
          4.341021 -0.054193 6.291195
          -0.127663 -0.503062 7.150558
          -0.610367 -1.443349 7.144197
          -0.673315 0.985315 1.834387
          -0.426366 -1.082644 7.117752
          -0.706438 0.115298 6.955590
          -0.608180 0.733578 1.836923
          -1.212137 -0.015772 1.834930
          0.101351 -0.439699 1.827269
          -0.187436 -0.334812 7.097326
          -0.131908 -0.301941 1.823411
          -0.338291 -0.210252 1.822344
          -0.640766 -0.041742 7.183966
          -0.686251 0.398190 7.007208
          -0.511277 -0.077817 7.192698
          -0.047043 -0.175285 7.369117
          -0.700917 -0.022202 7.224733
          -0.694258 0.049988 7.262199
          -0.007944 0.317856 7.323418
          -0.381141 -1.132935 6.992340
          -0.399008 0.177936 7.320009
          0.518090 0.176106 7.514258
          -0.350744 -1.174808 7.139744
          -0.657387 0.192931 7.090756
          -0.028564 0.038318 7.166626
          -1.205194 -0.344659 1.836567
          -0.719819 0.722609 1.836867
          -0.419950 -0.214529 1.826123
          0.379197 -0.781587 1.832285
          -0.578579 1.093865 1.806997
          -0.695827 0.372242 7.001434
          -0.586054 0.201391 7.326581
          -1.012600 0.317362 7.057523
          0.130670 -0.620950 1.838791
          -0.673666 1.112147 1.776929
          -0.471632 -1.104345 6.815998
          0.352476 -0.750826 1.835585
          5.268696 -0.626312 1.951504
          0.005731 -0.810314 1.837144
          -0.572955 -1.331594 7.070336
          0.072455 -0.535081 1.835020
          0.696701 0.154600 7.265306
          4.947006 0.163576 6.284431
          0.384562 1.128521 7.091979
          1.155070 -0.248065 1.826280
          0.580239 0.088157 7.390528
          -0.684517 -1.398536 7.179988
          0.673351 0.433272 7.133406
          0.546343 1.058800 1.795777
          -0.358238 -0.156073 7.245085
          -0.375160 -0.078654 1.836000
          0.151465 1.562109 7.240472
          0.419377 -0.032169 7.280668
          -0.439732 -0.233156 1.834813
          -0.542822 -1.485270 7.170722
          -0.790982 0.836747 1.838120
          -0.041448 1.566686 7.342075
          0.627141 -1.048646 7.240295
          -0.072916 -0.036458 7.361841
          -0.369414 -0.046027 1.838038
          0.264781 1.037425 7.247673
          -0.639042 0.457599 6.986803
          1.346671 -0.033457 1.837267
          0.476578 0.110952 7.493934
          0.408139 0.885828 7.082139
          0.847889 -1.210761 7.133066
          -0.130605 -0.617075 1.837890
          4.111585 0.644069 1.990739
          -0.817748 1.063199 1.795408
          0.374260 0.970505 7.245214
          -0.697026 0.742367 1.836703
          0.526959 -1.159546 7.186177
          4.349026 -0.067203 6.292312
          0.542434 0.065661 5.260452
          0.422822 0.087936 7.511100
          0.115553 -0.129704 7.261149
          -0.447741 -0.212027 1.834004
          0.170469 0.092706 7.443123
          0.304057 0.784970 7.175346
          -0.000000 -3.541737 5.634317
          0.063456 -0.418020 1.835210
          -0.173225 0.198455 7.484559
          -0.042863 0.018154 1.836758
          0.509390 -1.380949 7.088997
          0.635566 0.155074 6.142047
          0.077768 1.689616 7.191144
          0.152358 0.338886 7.272618
          -0.062681 0.025726 7.352560
          0.232352 0.842692 7.053590
          0.300564 -0.859772 1.835867
          0.270666 0.941930 7.064239
          0.774328 -1.324793 7.190164
          -0.376428 -0.118858 1.831561
          0.136050 -0.002448 7.392437
          -0.097121 -0.307808 1.823271
          0.676779 1.020849 1.806588
          -0.719087 -1.307294 6.961327
          0.000000 3.541738 5.634317
          -0.722745 0.895890 1.838055
          0.356094 0.011613 7.036763
          -0.461573 -0.242010 1.832804
          0.378521 1.078271 7.102783
          0.203261 1.158104 7.275165
          -0.003197 0.303518 5.038308
          0.131298 -0.018849 7.150269
          -0.289415 -0.121442 1.818823
          -0.105849 0.053437 1.829026
          0.049236 -0.162321 1.837807
          -0.682810 -1.033004 6.966700
          -4.217189 0.000715 1.967866
          -0.170417 -0.549388 1.831067
          -0.376776 -1.112226 6.810719
          0.022128 -0.569949 1.829075
          -0.698478 0.147365 7.023647
          -4.209577 0.025799 6.317203
          0.002511 1.712615 7.226208
          -1.238425 -0.150601 1.835795
          -0.209513 0.193933 7.156988
          0.901752 -1.304421 7.114495
          -0.623174 0.082280 7.065312
          -0.521487 1.100050 1.754660
          -0.113867 -0.014744 1.838127
          -0.122553 0.060194 1.830650
          0.095219 1.548917 7.137528
          -0.196972 0.169995 7.149183
          0.039718 -0.106937 1.822094
          -0.463247 -1.188724 6.831586
          0.392844 1.146150 1.725704
          0.386457 0.079576 7.033020
          -0.460660 -1.138228 6.880378
          -0.510447 -0.029907 7.082708
          -0.181017 -0.086771 1.840024
          -0.006590 1.487776 7.241335
          -0.650587 0.479860 6.961610
          -1.145485 0.057059 1.831872
          -0.359099 0.262933 7.352933
          -0.001457 1.518545 7.272623
          -0.544028 -0.948542 6.970015
          -0.155309 -0.735224 1.818887
          -4.155628 0.012434 1.962965
          0.406458 1.115447 1.728194
          -0.094908 1.543967 7.150665
          0.673789 1.070907 1.796618
          -0.347064 -1.113172 6.929208
          -4.327166 0.011115 6.321314
          -0.019942 -0.501099 7.166270
          0.403452 -1.228615 7.230016
          0.585079 1.120496 1.770511
          0.332500 0.146479 6.956546
          1.035432 -0.275615 1.832858
          0.537583 1.163599 1.800220
          1.228938 -0.044797 1.821160
          -0.198639 -0.389816 1.837732
          -0.088599 -0.069977 1.824017
          0.685193 1.165287 1.668515
          0.355422 -0.700034 1.831171
          0.717574 0.200343 7.220870
          0.635458 0.508551 7.169316
          -0.174446 -0.139354 7.223480
          -0.161616 0.292689 7.335107
          0.694733 0.312788 7.198432
          -0.056662 -0.075308 7.253596
          -0.413644 -0.079318 7.242463
          0.445505 -1.212557 7.256151
          -0.917050 0.525765 7.108019
          0.496552 0.291375 7.419655
          0.544909 -1.345034 7.177099
          0.383955 0.257660 7.079081
          0.026082 0.161741 7.217430
          1.124876 -0.326648 1.837599
          0.463053 1.142344 1.681850
          -0.052294 -0.188970 1.821798
          -0.338492 0.011302 1.834078
          0.514601 1.093869 1.618192
          0.695433 0.049221 7.265470
          -0.626035 0.147511 7.141805
          0.617769 0.546755 7.162685
          1.060442 -0.065735 1.836703
          0.666754 0.542255 7.159333
          0.725994 0.211772 7.189712
          0.395661 -0.638010 1.832593
          -4.344812 0.005088 1.961331
          0.947536 -1.245221 7.147960
          -1.315217 -0.301464 1.825441
          -1.161087 -0.023911 1.830622
          1.046159 -0.450186 1.826967
          -4.220094 0.000790 6.318620
          0.509601 0.392265 7.289034
          0.580930 0.520835 7.157788
          0.316221 0.059862 7.465122
          0.526927 0.207327 7.420181
          0.352729 1.130293 1.689152
          0.285024 0.009811 7.043262
          0.069975 -0.347053 7.190441
          -0.230224 -0.512051 1.837065
          -0.456154 -1.299131 7.238493
          -0.818971 0.491303 7.168398
          -0.245051 0.284473 7.345527
          0.424491 1.073428 1.632171
          0.320066 -0.009181 7.031916
          -0.595623 1.063648 1.680300
          0.353361 0.992539 7.171278
          -0.524520 -1.348108 7.173624
          -0.246468 0.195565 7.218479
          0.686590 -1.088678 7.152482
          0.375900 0.253220 6.900722
          0.470541 -1.216225 7.151196
          0.418102 0.166828 7.502242
          0.356959 0.256750 6.893597
          1.052125 -0.123266 1.834482
          0.481812 -1.199323 7.225736
          -4.217848 -0.055663 1.938455
          0.317990 0.812664 6.996570
          -1.227998 0.032031 1.825519
          -1.221960 -0.343108 1.830131
          1.292343 -0.125801 1.833065
          -4.196279 -0.000278 6.318434
          -1.244787 -0.333103 1.833189
          0.680367 -0.042440 7.281729
          0.107864 0.201431 7.365200
          0.580653 0.465642 7.046555
          0.595821 -1.398201 7.136601
          0.039399 0.296189 7.309328
          1.031811 -0.347546 1.831260
          0.042127 1.771937 7.153952
          -0.539762 -1.172529 6.940464
          -1.253147 -0.353637 1.823824
          -0.372436 -0.052856 7.280155
          0.583630 -1.156559 7.230308
          0.560480 -1.283711 7.133617
          -0.584835 -1.120017 7.031036
          0.587224 0.539890 7.158701
          -0.084285 -0.724925 1.817824
          0.058155 0.268310 7.297499
          0.449585 0.037338 6.934959
          0.223737 0.329853 7.328454
          -1.288682 0.054353 1.836703
          0.686071 -1.139902 7.238906
          0.044835 -0.242821 7.345887
          -0.676581 0.406012 7.113029
          0.478251 0.047859 7.237907
          1.113051 -0.434419 1.837330
          0.423735 -0.031205 7.007370
          0.003157 1.622902 7.095427
          -1.199755 -0.142399 1.823049
          -0.380430 0.242078 7.283234
          0.560624 0.249043 6.967006
          -1.207572 0.041312 1.836703
          0.676325 0.117751 7.176944
          -0.050285 -0.479731 7.234567
          0.790098 -1.221637 7.146297
          0.332576 0.302778 7.092070
          0.296358 0.794457 7.114180
          0.352462 0.180624 7.405474
          0.211005 -0.083642 7.139088
          -0.661306 0.269665 6.975369
          -0.551456 0.904233 1.827521
          0.003041 -0.772147 1.833891
          -0.839902 0.302890 7.175489
          -0.700326 0.946796 1.831169
          0.882473 -1.266783 7.145777
          0.771322 0.145544 7.201701
          -1.208771 0.071551 1.831336
          0.356179 -0.669942 1.824979
          -0.394257 0.027133 7.306105
          0.391552 1.030679 7.172534
          0.673938 0.514087 7.103645
          -0.184892 -0.546074 1.818010
          0.387807 0.794841 7.002490
          0.062522 -0.177756 7.337987
          -1.228182 -0.376705 1.821481
          0.690125 -1.097016 7.280997
          0.756998 -1.336502 7.202335
          0.678785 1.015274 1.830952
          0.557146 -1.400056 7.064456
          0.422063 -0.054212 7.373952
          -1.268769 -0.221661 1.836703
          0.144241 -0.441993 1.836703
          -0.114266 1.599661 7.157840
          -0.744579 0.292942 6.960016
          -0.195377 -0.030097 1.837927
          0.664498 1.147225 1.674151
          0.010493 -0.132997 7.360449
          -0.075989 -0.307242 7.127624
          -0.518959 -0.007298 7.287060
          -0.043745 -0.503971 7.196672
          0.098807 -0.388766 1.837368
          0.411752 1.115934 1.724055
          -0.545372 -1.432937 7.028484
        </DataArray>
      </Points>
      <PointData Scalars="density">
        <DataArray type="Float64" Name="density" format="ascii">
          877.866461
          1001.745383
          1075.969040
          889.250755
          990.320409
          1031.868341
          863.075893
          893.844951
          1145.091086
          892.122534
          986.987359
          1097.795311
          963.184246
          769.610920
          1049.424264
          934.874634
          1068.418725
          1061.347409
          1080.949579
          964.956638
          843.622679
          812.747000
          1068.559249
          857.669970
          904.274849
          1004.314117
          1013.900045
          790.132957
          1222.064817
          1022.117822
          1058.540990
          917.896807
          974.768038
          723.991968
          1097.272507
          1139.336055
          799.577134
          841.400636
          774.635988
          679.192943
          878.960479
          836.136344
          806.465916
          917.391476
          956.083107
          836.154576
          995.146090
          941.889538
          791.268564
          827.106115
          670.454089
          948.484968
          867.802424
          603.059422
          776.795025
          857.809107
          1046.685768
          1048.000213
          864.327549
          1081.955337
          1004.399102
          970.533724
          576.028438
          985.283651
          995.361775
          1128.224970
          883.154523
          760.064130
          904.998648
          1155.958531
          934.738349
          962.846176
          500.000000
          937.390034
          754.255592
          879.179390
          873.310861
          500.000000
          1046.745885
          1257.409368
          917.252302
          1160.801494
          787.560247
          828.134386
          747.289987
          703.439294
          792.528557
          904.186596
          1017.245066
          773.179966
          1040.136764
          1035.854581
          720.999388
          812.493074
          710.609532
          1029.829893
          654.219714
          743.829914
          873.828600
          762.441332
          735.668396
          708.159979
          500.000000
          731.878465
          866.518382
          826.047221
          897.002519
          500.000000
          779.591305
          911.935279
          1140.913299
          797.341717
          713.553899
          858.949732
          1027.408235
          912.471095
          728.907984
          1003.366287
          1025.098351
          984.351461
          980.516400
          1089.795454
          960.613946
          866.395330
          894.335509
          906.041457
          1097.470920
          1057.616571
          846.007172
          711.737542
          1127.269131
          934.206892
          810.993591
          793.266609
          827.310119
          674.695357
          906.099511
          1087.672155
          828.346838
          671.083619
          1028.276792
          791.246209
          964.283864
          765.580205
          500.000000
          740.729391
          1176.308026
          1064.151970
          1034.005793
          500.000000
          715.130264
          1104.014087
          1122.087713
          791.147576
          940.360993
          975.019052
          860.972769
          928.823458
          713.607125
          910.144266
          724.587709
          823.743809
          831.039333
          733.943300
          850.900149
          998.069585
          864.167951
          810.748394
          723.402020
          737.056730
          950.364917
          986.473985
          922.447686
          1053.106648
          500.000000
          602.345404
          888.300485
          890.679501
          1118.037739
          500.000000
          500.000000
          881.212807
          1088.213335
          806.179098
          956.730090
          667.975768
          500.000000
          937.258912
          644.927629
          926.889591
          793.892284
          500.000000
          920.862633
          816.730528
          1069.003956
          720.938990
          500.812775
          980.813598
          994.335794
          993.516126
          1029.512154
          985.278619
          745.200591
          680.107969
          500.000000
          1085.104320
          1063.230296
          714.274820
          936.489786
          500.000000
          500.000000
          990.924462
          1152.625756
          883.974843
          845.092127
          500.000000
          500.000000
          871.002655
          831.882575
          1135.054832
          989.964654
          500.000000
          908.057135
          1126.708888
          806.124647
          729.269894
          947.464298
          750.294280
          1087.706902
          855.603512
          938.085580
          793.131404
          859.565133
          984.992152
          881.553899
          1159.736118
          1128.308858
          905.192854
          1226.436894
          922.384105
          669.377531
          892.534003
          867.605715
          909.308221
          675.326738
          845.012131
          500.000000
          948.821730
          934.313874
          858.050304
          928.708377
          500.000000
          899.342979
          757.658103
          1128.698779
          1064.425502
          953.815178
          1041.973970
          956.417639
          808.286641
          1141.138997
          855.963516
          742.462909
          953.876163
          898.623814
          1008.311524
          907.924771
          1020.372843
          1119.660162
          1062.998629
          907.061905
          675.432929
          870.444324
          964.355861
          1008.742532
          1058.391161
          979.477333
          1073.000770
          1064.605543
          823.678933
          1057.694753
          949.590199
          1157.149180
          834.970581
          740.631104
          814.333433
          939.879869
          663.500465
          500.000000
          642.217191
          857.948010
          979.326617
          730.941330
          500.000000
          849.708972
          882.189512
          885.457307
          1083.729059
          728.491146
          1021.899507
          1019.343222
          710.194783
          782.383611
          732.702223
          894.075811
          931.593566
          1004.141418
          806.836864
          1058.345615
          1049.247714
          928.812150
          1025.266342
          816.990431
          994.004624
          939.378299
          785.369805
          838.294348
          1058.149529
          500.000000
          757.506294
          938.461119
          841.147614
          967.051250
          500.000000
          882.305017
          742.669228
          1110.557600
          855.285735
          887.983906
          983.279077
          889.427385
          598.972570
          1210.468177
          828.346047
          1069.821744
          1210.887008
          1198.852997
          1039.006430
          833.368806
          964.222595
          1020.197696
          930.411776
          866.012251
          836.735851
          1143.065305
          1004.916835
          920.274056
          1113.614027
          782.330006
          869.729314
          976.957135
          1119.102912
          986.447112
          865.862023
          957.842550
          1003.419314
          933.595662
          1107.677066
          833.986095
          791.489756
          1129.487695
          896.738507
          971.746484
          1066.389111
          898.808548
          924.117180
          1168.660634
          806.866579
          878.888602
          835.580572
          716.333456
          1150.489248
          1003.357437
          862.672261
          854.599618
          692.058484
          1033.438103
          804.876131
          943.941851
          1046.946374
          653.477586
          718.822000
          750.869337
          1040.470024
          808.106857
          891.910355
          1081.483686
          1170.856558
          936.564168
          1042.296202
          1022.670410
          1188.173977
          886.420160
          810.946223
          951.737525
          849.937545
        </DataArray>
        <DataArray type="Float64" Name="pressure" format="ascii">
          -3664.006181
          52.361504
          2279.071198
          -3322.477362
          -290.387744
          956.050228
          -4107.723197
          -3184.651459
          4352.732566
          -3236.323967
          -390.379220
          2933.859319
          -1104.472634
          -6911.672412
          1482.727908
          -1953.760988
          2052.561741
          1840.422258
          2428.487377
          -1051.300847
          -4691.319631
          -5617.590008
          2056.777476
          -4269.900890
          -2871.754544
          129.423521
          417.001351
          -6296.011292
          6661.944522
          663.534658
          1756.229695
          -2463.095783
          -756.958847
          -8280.240975
          2918.175224
          4180.081661
          -6012.685984
          -4757.980913
          -6760.920361
          -9624.211718
          -3631.185628
          -4915.909692
          -5806.022516
          -2478.255724
          -1317.506791
          -4915.362719
          -145.617293
          -1743.313866
          -6261.943089
          -5186.816536
          -9886.377338
          -1545.450969
          -3965.927280
          -11908.217346
          -6696.149264
          -4265.726781
          1400.573040
          1440.006383
          -4070.173517
          2458.660115
          131.973071
          -883.988284
          -12719.146860
          -441.490465
          -139.146749
          3846.749104
          -3505.364300
          -7198.076087
          -2850.040560
          4678.755918
          -1957.849538
          -1114.614733
          -15000.000000
          -1878.298966
          -7372.332235
          -3624.618288
          -3800.674157
          -15000.000000
          1402.376557
          7722.281052
          -2482.430925
          4824.044822
          -6373.192585
          -5155.968421
          -7581.300380
          -8896.821182
          -6224.143299
          -2874.402127
          517.351994
          -6804.601032
          1204.102912
          1075.637443
          -8370.018352
          -5625.207789
          -8681.714031
          894.896798
          -10373.408583
          -7685.102576
          -3785.141997
          -7126.760030
          -7929.948115
          -8755.200625
          -15000.000000
          -8043.646044
          -4004.448539
          -5218.583380
          -3089.924443
          -15000.000000
          -6612.260837
          -2641.941642
          4227.398975
          -6079.748485
          -8593.383028
          -4231.508041
          822.247037
          -2625.867145
          -8132.760466
          100.988612
          752.950536
          -469.456160
          -584.508006
          2693.863612
          -1181.581608
          -4008.140106
          -3169.934715
          -2818.756290
          2924.127600
          1728.497124
          -4619.784855
          -8647.873748
          3818.073925
          -1973.793238
          -5670.192274
          -6202.001717
          -5180.696439
          -9759.139290
          -2817.014676
          2630.164661
          -5149.594867
          -9867.491423
          848.303755
          -6262.613737
          -1071.484076
          -7032.593857
          -15000.000000
          -7778.118281
          5289.240775
          1924.559110
          1020.173793
          -15000.000000
          -8546.092083
          3120.422609
          3662.631398
          -6265.572730
          -1789.170205
          -749.428427
          -4170.816931
          -2135.296247
          -8591.786236
          -2695.672032
          -8262.368729
          -5287.685742
          -5068.820013
          -7981.701004
          -4472.995523
          -57.912452
          -4074.961471
          -5677.548195
          -8297.939388
          -7888.298098
          -1489.052482
          -405.780441
          -2326.569408
          1593.199439
          -15000.000000
          -11929.637888
          -3350.985440
          -3279.614964
          3541.132181
          -15000.000000
          -15000.000000
          -3563.615779
          2646.400037
          -5814.627068
          -1298.097285
          -9960.726948
          -15000.000000
          -1882.232628
          -10652.171143
          -2193.312263
          -6183.231475
          -15000.000000
          -2374.121018
          -5498.084146
          2070.118679
          -8371.830308
          -14975.616744
          -575.592074
          -169.926194
          -194.516205
          885.364633
          -441.641421
          -7643.982255
          -9596.760927
          -15000.000000
          2553.129587
          1896.908889
          -8571.755393
          -1905.306420
          -15000.000000
          -15000.000000
          -272.266146
          4578.772694
          -3480.754712
          -4647.236195
          -15000.000000
          -15000.000000
          -3869.920347
          -5043.522737
          4051.644958
          -301.060387
          -15000.000000
          -2758.285955
          3801.266640
          -5816.260579
          -8121.903175
          -1576.071067
          -7491.171601
          2631.207066
          -4331.894650
          -1857.432594
          -6206.057887
          -4213.046022
          -450.235438
          -3553.383017
          4792.083548
          3849.265742
          -2844.214394
          6793.106815
          -2328.476853
          -9918.674080
          -3223.979914
          -3971.828565
          -2720.753379
          -9740.197873
          -4649.636062
          -15000.000000
          -1535.348109
          -1970.583766
          -4258.490880
          -2138.748683
          -15000.000000
          -3019.710616
          -7270.256910
          3860.963369
          1932.765064
          -1385.544650
          1259.219113
          -1307.470837
          -5751.400775
          4234.169917
          -4321.094508
          -7726.112721
          -1383.715105