<?xml version="1.0"?>
<VTKFile type="PolyData" version="0.1" byte_order="LittleEndian">
  <PolyData>
    <Piece NumberOfPoints="686" NumberOfVerts="686" NumberOfLines="0" NumberOfStrips="0" NumberOfPolys="0">
      <Points>
        <DataArray type="Float64" NumberOfComponents="3" format="ascii">
          -0.826068 -0.097875 5.066314
          -0.444317 0.047107 5.057492
          -0.123113 -0.013681 5.449958
          -0.422092 -0.735503 5.082818
          -0.358368 -0.686040 4.963543
          -0.363499 0.060707 5.145309
          -0.051457 0.110533 5.602239
          -0.807939 -0.101102 5.055897
          -0.309620 -0.047985 5.039333
          -1.572082 -0.076405 5.126942
          -0.463823 -0.083954 5.015046
          -0.083346 0.007346 5.102597
          -1.332845 -0.083683 5.046053
          -1.641573 -0.028049 6.372483
          -1.013281 -0.090392 5.077653
          0.049213 -0.096201 4.615317
          0.317328 -0.131577 5.405197
          -1.618920 -0.047821 5.252882
          -0.263767 -0.075598 5.824523
          -0.607665 -0.052134 5.061791
          -1.653913 -0.068219 6.351425
          -1.300874 -0.100824 5.046954
          0.014243 -0.007578 3.581965
          -1.262439 -0.087917 5.087039
          0.029384 -0.069336 4.618718
          -0.952482 -0.082318 5.077439
          -0.304257 -0.156925 4.962205
          -1.582830 -0.070723 5.300026
          -1.349389 -0.092932 5.059004
          -0.316886 -0.321392 5.057164
          -0.284362 -0.180834 5.795232
          -1.214044 -0.064004 5.045212
          0.031324 0.125456 5.504763
          -0.373347 0.123966 5.322951
          -1.650605 -0.049535 6.342791
          -0.625247 -0.055454 5.037952
          -0.125017 -0.070918 5.222615
          -1.584157 0.052371 5.283549
          -0.727832 -0.084880 5.097842
          -0.018233 0.204019 4.745940
          -1.468541 -0.011029 5.218671
          -1.638695 -0.067643 6.376589
          -0.817558 -0.078970 5.048511
          -0.290022 0.453429 5.304616
          -0.408826 0.060745 5.425313
          -0.316482 -0.245954 4.747361
          -0.123811 0.286815 5.072877
          -0.115740 0.400724 5.271325
          -0.303785 0.082736 5.443090
          -0.223548 -2.439797 2.910472
          -0.481765 -0.600689 4.970848
          -5.479691 -2.993862 5.091922
          -0.188843 -0.162399 5.827212
          -5.499468 -2.985973 5.059365
          0.072473 0.098167 5.605682
          0.073760 -1.212338 5.830328
          -0.417401 0.520298 5.298110
          -4.228164 -2.179375 3.199222
          -0.347551 -0.660203 5.096007
          0.328912 -0.170531 5.221176
          0.026959 -0.043924 5.337408
          -3.691188 -2.232539 7.237111
          -1.518531 0.004754 5.360515
          -5.472812 -0.031567 0.497072
          -0.728134 -1.655777 4.719222
          -2.728916 -0.030416 5.066021
          -5.457181 -3.034954 5.043712
          -2.730067 -0.057878 5.034891
          -0.156953 -0.208828 5.193418
          -5.460153 -0.031569 9.632017
          -0.716514 -0.000747 3.877563
          -0.027682 -0.093411 3.584172
          -5.511107 -0.050000 0.530152
          -2.710268 -0.050073 5.072439
          -5.498796 -0.050000 9.599322
          -0.443694 -0.035696 5.155101
          0.106324 -0.117727 5.776645
          -5.472812 -0.068433 0.497072
          -0.115990 1.076027 4.427710
          -2.728910 -0.069538 5.066094
          -5.489788 3.223250 5.067575
          -2.730095 -0.042096 5.034909
          -0.066751 0.336271 5.059985
          -5.460153 -0.068431 9.632017
          0.190246 0.073558 5.039074
          -4.227050 2.080340 3.198814
          -0.199704 -0.226817 4.959786
          -0.170542 0.787117 5.510720
          -0.115260 -0.049456 5.393545
          -3.703197 2.226448 7.379268
          -1.525601 0.046336 5.343519
          0.021897 2.306726 2.692789
          -0.095606 -0.150553 5.437586
          -5.471846 3.193308 5.093772
          0.351382 -0.145766 6.000357
          -5.474707 3.205769 5.033638
          0.102744 0.469484 5.164753
          -0.344807 1.159031 5.695699
          0.035394 -0.170018 5.238513
          -0.002752 0.407538 5.196354
          0.091851 -0.086855 3.658267
          -3.546553 -1.608381 5.059007
          -1.523416 -0.055876 5.100739
          -0.003720 -0.162141 5.279630
          -0.149892 -0.199716 5.798309
          -0.018977 -0.074887 3.506599
          -4.170160 -2.984230 1.875474
          -0.347051 -0.232081 4.732088
          -0.671907 -0.073010 5.005095
          0.354264 -0.065507 5.842783
          -3.668392 -2.350467 7.371162
          -0.073112 -0.332349 4.788692
          -0.273979 0.103313 5.354268
          0.767455 -1.517633 4.897634
          -0.167762 0.139021 4.983231
          -0.053392 -0.150729 5.702610
          0.112542 -0.148210 5.521693
          -0.344342 -1.215895 6.191477
          -0.475114 -0.730516 5.042866
          -3.416118 -0.053717 0.000000
          -1.043538 -0.075042 5.084235
          -0.190988 0.192004 5.377714
          -0.769903 -0.019581 4.008615
          -0.297490 -0.417272 5.012764
          -1.648746 -0.035816 6.380877
          -3.553229 -0.051992 15.142896
          -0.510472 -0.070701 5.021269
          -0.206304 1.109391 4.591093
          -0.503573 -0.667676 4.975599
          -0.292180 0.023319 5.688494
          0.108138 -0.061539 5.675155
          -0.335728 1.152816 5.781513
          -0.412695 0.541210 5.278537
          0.019780 -0.167029 3.589968
          -4.171502 2.891584 1.875437
          0.094811 -0.157019 5.505379
          -0.348195 0.531058 5.231403
          -0.378069 0.020724 5.266374
          -3.591344 2.135909 7.286697
          -0.185085 0.366570 5.225005
          0.397837 0.232468 5.308121
          0.061678 -0.163043 6.071584
          0.075467 -0.060718 3.432630
          -3.554006 1.143622 5.064747
          -1.571849 -0.058861 5.119695
          -0.406820 0.484805 5.285967
          -0.197791 0.388907 5.300642
          -0.719178 -1.680908 4.818150
          -4.224419 -2.205843 3.197994
          -3.548868 -1.606719 5.061830
          -0.113015 -0.337980 5.032580
          -3.553405 -1.605435 5.064824
          -3.712471 -2.256777 7.230258
          0.190429 -1.295031 5.982231
          -4.259491 -2.193457 3.200236
          0.396441 -2.376222 2.523798
          -0.338376 -3.617978 1.565778
          -0.341815 -0.122346 4.620261
          -0.590888 -3.589585 8.554670
          0.270862 -1.373829 5.942175
          -3.745155 -2.320795 7.268293
          -3.423678 -0.048325 0.000000
          -0.308362 -3.555712 1.610721
          -4.170235 -2.985578 1.866157
          -0.105335 -3.975405 5.028774
          -3.603899 -2.280909 7.364231
          -0.677485 -3.540351 8.549339
          -3.548187 -0.043188 15.108920
          -0.698820 -0.041165 3.990187
          -0.282333 -0.199586 5.523397
          -0.058761 0.000597 2.018543
          -0.329656 -0.040143 5.609996
          0.110926 -0.118045 9.278234
          -0.231101 -0.219884 5.521234
          0.258478 -0.115177 5.828521
          -3.419537 -0.051131 0.000000
          -0.292895 3.463781 1.546854
          -4.171104 2.885979 1.875589
          0.169014 3.969877 5.090702
          -3.733208 2.218181 7.355550
          -0.677479 3.440348 8.549328
          -3.550240 -0.050508 15.128629
          -4.259998 2.094930 3.200681
          0.066559 2.309151 2.624196
          -0.252802 3.402354 1.543251
          0.264432 -0.189411 4.777409
          -0.590879 3.489581 8.554684
          -0.294106 1.250071 5.815393
          -3.697593 2.130433 7.254161
          -0.161764 1.128802 4.614817
          -4.223911 2.103042 3.196876
          -3.547383 1.142705 5.059902
          -0.161219 0.759057 5.519035
          -3.547652 1.140872 5.064748
          -3.686790 2.282120 7.283702
          -0.341796 1.231771 5.800591
          0.757322 -1.419242 4.858021
          0.333735 -3.563707 1.540150
          -4.263343 -2.200595 3.220936
          -3.555916 -1.601424 5.065447
          -3.711710 -2.358570 7.345967
          -0.654889 -3.558254 8.523133
          0.107364 -1.262586 5.983905
          -0.300036 -3.571573 1.527575
          -0.045306 -0.077722 4.567403
          -0.301916 -0.454243 5.083300
          -0.385991 0.074510 5.158713
          -0.157075 -0.028997 5.368111
          0.073185 -0.186735 6.059497
          -0.588247 -3.586618 8.583521
          -4.235009 -2.193639 3.230712
          -0.191191 -0.003208 5.012967
          -0.175082 -2.360975 2.828109
          -0.158276 -0.214522 5.172552
          0.049484 -1.277849 5.984198
          -1.498171 -0.075181 5.088165
          -3.590301 -2.291763 7.246610
          -3.417795 -0.046827 0.000000
          -0.750073 -0.050701 3.884262
          -0.807636 0.001850 3.933668
          0.318039 0.127339 5.046056
          -0.308405 -0.337915 5.085641
          -0.473523 0.051019 5.134916
          -3.554075 -0.054312 15.129120
          -4.236203 2.097599 3.231070
          -0.194363 0.073386 4.932464
          -0.030919 2.164637 2.848203
          -0.162587 0.248187 5.270279
          0.675618 1.142990 6.442034
          -1.522294 0.032336 5.353172
          -3.612032 2.145328 7.235429
          -0.207529 3.482101 1.587640
          -0.000764 0.016762 4.999411
          -0.160600 0.406864 5.228335
          -0.006742 0.173260 4.728633
          -0.267177 -0.098087 5.514241
          0.043288 -0.118907 5.940217
          -0.588245 3.486620 8.583516
          -0.158707 1.193885 4.599573
          0.173815 3.419860 1.520512
          -4.263262 2.096994 3.221662
          -3.555699 1.152790 5.061750
          -3.596388 2.157390 7.337098
          -0.654906 3.458248 8.523142
          -0.248843 1.271808 5.678831
          -0.335463 -0.096948 4.950577
          -4.183778 -3.012078 1.876236
          -0.309826 -3.951771 5.078397
          0.188769 -3.941845 5.020454
          -0.299075 -3.925531 5.062035
          -3.647317 -2.244322 7.366578
          0.336835 -0.146838 5.345089
[...]
      <PointData Scalars="density">
        <DataArray type="Float64" Name="density" format="ascii">
          990.156650
          1004.466044
          950.449461
          1001.289716
          1001.714902
          982.436141
          1007.697645
          995.233996
          993.623200
          996.931112
          995.262203
          1013.325958
          986.056683
          998.311686
          1003.734717
          945.695820
          932.890350
          1008.329333
          967.009608
          1010.499161
          997.857402
          997.455260
          998.053795
          1000.857863
          982.646830
          999.546471
          989.577875
          989.203545
          985.450132
          979.552242
          1005.577451
          999.600752
          997.907505
          1012.001013
          1000.925114
          1005.685865
          1022.598370
          1004.503622
          974.562126
          1039.117074
          985.571045
          1000.165058
          992.091393
          1000.146853
          988.574309
          987.337904
          970.711152
          991.587104
          979.115661
          994.341981
          998.698702
          561.746232
          989.680130
          565.683774
          980.610247
          996.324827
          992.347024
          998.973566
          981.082480
          1005.562383
          1018.186097
          993.535417
          988.446815
          590.604954
          988.975440
          1000.423321
          503.756466
          1001.891564
          967.516697
          590.608833
          997.440253
          995.388584
          572.593573
          999.647636
          572.603759
          1003.403201
          998.015860
          590.604954
          994.316880
          1000.438290
          618.978271
          1001.896229
          1056.071336
          590.608833
          995.667658
          998.659298
          995.649161
          1008.238798
          1062.504845
          996.146811
          996.620810
          1001.344870
          961.115837
          620.171864
          1016.206879
          617.391155
          1013.696864
          995.918238
          1000.742308
          1010.487173
          992.276934
          829.959129
          1009.535371
          1056.544035
          998.826051
          1001.201654
          827.949832
          980.925088
          953.226448
          947.240977
          1014.173052
          955.043673
          990.082175
          1009.185727
          1019.368949
          991.270989
          1022.851861
          1011.183804
          1007.410062
          831.735979
          994.587332
          929.983089
          997.362504
          1014.151930
          1002.381044
          810.316242
          1008.222501
          1007.780404
          1006.173568
          978.076868
          1011.426179
          1001.999136
          996.701263
          994.087331
          829.280646
          1034.308467
          982.523355
          972.733495
          995.520136
          1013.643258
          1004.451378
          992.434467
          997.255359
          829.070077
          998.355999
          1002.718659
          992.931608
          998.514404
          997.439740
          830.545024
          982.912657
          830.449157
          998.893781
          993.334753
          1004.657832
          1003.265999
          998.069772
          971.121477
          999.839034
          993.170764
          1000.860680
          831.094770
          1003.215405
          826.218017
          992.583913
          1006.462291
          1004.838792
          817.042525
          1001.930925
          1008.033744
          949.649989
          988.414168
          1016.833874
          1009.673789
          1045.019450
          831.660762
          999.676017
          828.335265
          982.832012
          1000.665982
          1004.840708
          822.047360
          1004.452034
          1012.354532
          998.603021
          993.137659
          999.836517
          998.113933
          1011.535474
          992.231094
          997.812118
          829.841233
          997.314488
          829.220450
          1006.537776
          1005.792705
          995.084214
          1000.517053
          996.576015
          830.036543
          994.611430
          1004.167391
          1000.622404
          1009.269933
          988.432335
          1000.751957
          1005.258764
          993.209857
          1008.495892
          1001.840844
          1001.214129
          968.536899
          1009.007344
          987.174259
          992.403168
          980.531829
          1003.899756
          831.727766
          1007.272364
          996.346585
          976.767378
          988.401458
          1011.387418
          825.175919
          1001.006353
          941.575473
          993.861345
          1041.367314
          1001.494906
          996.472676
          1004.556106
          1001.929388
          964.686191
          998.925016
          984.982633
          1043.303547
          1002.582258
          1001.836287
          998.887448
          1002.729786
          997.126468
          830.661254
          1005.582516
          1004.168786
          1000.750487
          990.123715
          825.752929
          940.166768
          996.416200
          954.377165
          1005.407985
          972.884184
          823.382381
          1003.491392
          1006.558102
          1018.007243
          1005.329453
          992.772044
          1008.381383
          975.720875
          1010.578591
          994.864042
          962.287237
          999.269973
          1002.071027
          1001.809788
          982.113034
          1006.304589
          1001.329448
          989.336065
          971.257319
          1004.723988
          1001.752452
          973.404511
          1001.630605
          1008.422936
          993.283847
          990.906119
          1008.690325
          999.935257
          830.026163
          976.304875
          1007.340998
          978.447494
          1000.952414
          1000.536748
          1001.020690
          979.961739
          829.054083
          999.797176
          981.267684
          1058.683398
          1006.669693
          1003.329599
          1002.383132
          1014.932265
          956.273127
          1024.676163
          1130.140748
          999.763517
          964.992627
          997.713223
          1023.790954
          1000.606542
          1009.997636
          998.704204
          999.718280
          1005.710180
          989.482419
          996.822099
          909.578523
          1042.266008
          994.532141
          1001.101488
          991.968174
          1009.882850
          922.940069
          1011.756703
          999.742747
          983.037765
          1001.259921
          1004.233862
          986.260176
          998.906947
          990.474300
          995.702694
          992.027933
          1001.099891
          993.290754
          985.243948
          960.934734
          1000.093826
          1005.379721
          998.701663
          989.598339
          1001.241842
          999.743949
          976.867100
          993.315324
          954.781688
          1010.552359
          1002.823147
          1041.382283
          1003.691112
          998.633436
          1005.314268
          1021.297630
          936.566670
          997.833604
          994.611662
          1009.609076
          1007.611345
          995.843574
          964.216219
          998.708401
          1015.268046
          1000.565352
          978.906916
          1001.717598
          1019.585769
          1002.417586
          1005.797600
          1001.104856
          993.830984
          967.145050
          1043.424423
          947.133502
          999.984037
          998.318313
          992.050529
          1006.717400
          981.949263
          998.924697
          987.568181
          1022.322498
          994.880910
          1001.102732
          1005.717995
          997.732679
          971.374799
          1000.862226
          968.482658
          998.705422
          994.560227
          999.889474
          1007.562872
          986.096279
          1039.576844
          960.102952
          948.072136
          1007.794115
          1011.322956
          991.739002
          782.544907
          1015.724074
          968.920143
          1025.803719
          994.603480
          1015.781647
          813.763783
          1007.969797
          998.212786
          990.552377
          996.996161
          995.529734
          991.377818
          992.673434
          997.077944
          1011.176906
          992.923362
          998.410218
          1003.342526
          1013.776789
          969.455301
          968.277390
          1003.346795
          978.611745
          977.246096
          1023.392445
          1008.339489
          985.288625
          1030.647109
          986.167809
          978.471741
          1004.178301
          1003.469211
          1016.777011
          827.211452
          992.161092
          984.531174
          1019.348930
          995.139315
          998.107106
          989.327199
          1035.531834
          828.666666
          1006.169080
          971.879236
          963.443828
          999.300033
          974.946544
          998.105104
          1000.813879
          997.099077
          825.089197
          996.632611
          1004.167197
          1009.809709
          1007.645521
          1027.954451
          951.439034
          966.905643
          1048.226499
          983.874112
          1001.858352
          1001.019981
          964.486569
          1006.232733
          985.535973
          998.539288
          991.083942
          998.760866
          831.613359
          996.237677
          996.723683
          1041.317604
          958.375513
          973.803221
          789.294367
          1001.014872
          967.437483
          997.370953
          1050.147189
          1004.852989
          990.895500
          1008.245959
          1002.199055
          965.424133
          969.096683
          982.995270
          1066.977190
          996.740066
          1001.851154
          995.809616
          1001.819299
          997.111362
          828.284981
          999.407988
          1004.168269
          997.813825
          1004.853885
          997.793177
          824.247242
          955.869312
          813.166208
          998.786376
          992.970265
          1004.466624
          989.504951
          998.829717
          958.381983
          999.848083
          989.971983
          992.023853
          830.132381
          1002.705829
          814.376800
          1015.031581
          996.031916
          1004.835334
          816.594333
          1007.918772
          1009.038843
          961.038773
          1006.876323
          998.798676
          1013.227008
          1018.417514
          831.316901
          999.450886
          828.182451
          1022.302075
          1006.747444
          1004.837981
          816.511347
          1004.460339
          999.219735
          999.541932
          940.659242
          999.844378
          1008.492016
          1008.632969
          1000.756886
          997.801503
          829.962291
          995.138861
          828.535351
          996.199719
          996.160524
          1051.065305
          999.460920
          991.615740
          815.521375
          975.184569
          989.639599
          980.001584
          1004.131254
          803.833244
          989.375988
          1002.914345
          976.364025
          998.544341
          954.260924
          985.555353
          1002.296208
          955.960429
          1019.334299
          1007.223432
          1001.565717
          994.582905
          831.627131
          929.662142
          950.484023
          1011.964274
          1000.897509
          998.981968
          818.960914
          1024.814924
          1006.474340
          995.144253
          1017.369962
          994.217530
          1002.721198
          955.004246
          992.860099
          826.852218
          1000.444803
          1029.438776
          1009.422929
          999.346576
          990.492920
          954.408885
          995.153681
          1002.824767
          829.806176
          982.303992
          1005.831715
          999.612744
          1003.111808
          984.469079
          584.119675
          991.813957
          540.104511
          945.123740
          997.728319
          952.015534
          998.678067
          1015.315879
          1007.480705
          1006.207980
          997.173753
          978.150739
          590.597404
          995.380072
          1000.560566
          536.847492
          997.198204
          930.872244
          590.606059
          1007.322199
          1000.373147
          572.419394
          1000.156650
          572.434432
          1033.298994
          1008.689193
          590.597404
          990.085074
          1001.390596
          535.216773
          996.689442
          966.588170
          590.606059
          1029.089977
          998.669620
          1004.677710
          1009.304552
          1001.800415
          1003.263275
          999.479907
          981.929032
          995.673091
          500.000000
          1002.670584
          537.988476
          970.765751
          999.983788
          986.730351
          1036.654459
          992.776192
          956.026363
          926.515245
          1041.658628
          996.850227
          950.308067
          985.505853
          979.286081
          998.926980
          1055.440049
          984.569885
          1000.121089
          939.450503
          1003.711113
          1007.185218
          1005.494140
          1000.602016
          973.104216
          1003.065455
          1002.779008
          996.781276
          1039.670336
          983.172500
          982.397448
          1006.932169
          995.061440
          994.711034
          1027.614665
          981.375384
          996.965963
          955.384140
          984.642638
          1000.007712
          1002.594869
          945.424262
          1011.758260
          1007.353344
          991.593097
          1020.510340
          998.219073
          954.418862
          1032.271342
          1024.615313
          987.562804
          988.664204
          952.415636
          978.104514
        </DataArray>
        <DataArray type="Float64" Name="pressure" format="ascii">
          -1181.202038
          535.925327
          -5946.064636
          154.765938
          205.788228
          -2107.663096
          923.717401
          -571.920483
          -765.216000
          -368.266590
          -568.535610
          1599.114923
          -1673.198005
          -202.597639
          448.166014
          -6516.501541
          -8053.158042
          999.519952
          -3958.847012
          1259.899282
          -257.111779
          -305.368773
          -233.544619
          102.943578
          -2082.380393
          -54.423531
          -1250.655057
          -1295.574543
          -1745.984153
          -2453.731002
          669.294144
          -47.909724
          -251.099360
          1440.121521
          111.013634
          682.303843
          2711.804415
          540.434595
          -3052.544857
          4694.048934
          -1731.474552
          19.806979
          -949.032882
          17.622324
          -1371.082916
          -1519.451527
          -3514.661718
          -1009.547524
          -2506.120663
          -678.962260
          -156.155708
          -52590.452143
          -1238.384344
          -52117.947085
          -2326.770302
          -441.020758
          -918.357110
          -123.172061
          -2270.102369
          667.485959
          2182.331615
          -775.749962
          -1386.382174
          -49127.405476
          -1322.947244
          50.798563
          -59549.224110
          226.987735
          -3897.996324
          -49126.940085
          -307.169600
          -553.369921
          -51288.771235
          -42.283633
          -51287.548936
          408.384167
          -238.096809
          -49127.405476
          -681.974451
          52.594752
          -45722.607427
          227.547536
          6728.560309
          -49126.940085
          -519.881050
          -160.884293
          -522.100731
          988.655771
          7500.581378
          -462.382702
          -405.502830
          161.384353
          -4666.099554
          -45579.376345
          1944.825464
          -45913.061374
          1643.623673
          -489.811425
          89.076985
          1258.460802
          -926.767911
          -20404.904517
          1144.244516
          6785.284253
          -140.873929
          144.198500
          -20646.020193
          -2288.989425
          -5612.826204
          -6331.082736
          1700.766296
          -5394.759246
          -1190.138971
          1102.287260
          2324.273870
          -1047.481371
          2742.223350
          1342.056496
          889.207484
          -20191.682472
          -649.520147
          -8402.029280
          -316.499550
          1698.231603
          285.725277
          -22762.050938
          986.700067
          933.648481
          740.828123
          -2630.775881
          1371.141536
          239.896304
          -395.848455
          -709.520311
          -20486.322529
          4117.016012
          -2097.197401
          -3271.980569
          -537.583728
          1637.191014
          534.165365
          -907.863994
          -329.356865
          -20511.590809
          -197.280151
          326.239021
          -848.207055
          -178.271468
          -307.231171
          -20334.597120
          -2050.481163
          -20346.101155
          -132.746297
          -799.829611
          558.939820
          391.919830
          -231.627372
          -3465.422797
          -19.315919
          -819.508336
          103.281582
          -20268.627568
          385.848569
          -20853.837949
          -889.930495
          775.474880
          580.654989
          -21954.897011
          231.711054
          964.049296
          -6042.001359
          -1390.299858
          2020.064867
          1160.854655
          5402.334047
          -20200.708569
          -38.877924
          -20599.768170
          -2060.158584
          79.917896
          580.884953
          -21354.316834
          534.244054
          1482.543786
          -167.637435
          -823.480952
          -19.617995
          -226.328032
          1384.256924
          -932.268698
          -262.545817
          -20419.052034
          -322.261438
          -20493.546035
          784.533064
          695.124652
          -589.894309
          62.046413
          -410.878259
          -20395.614884
          -646.628428
          500.086872
          74.688451
          1112.391936
          -1388.119803
          90.234791
          631.051653
          -814.817209
          1019.507069
          220.901300
          145.695497
          -3775.572123
          1080.881313
          -1539.088967
          -911.619805
          -2336.180527
          467.970668
          -20192.668029
          872.683652
          -438.409812
          -2787.914691
          -1391.825004
          1366.490169
          -20978.889665
          120.762311
          -7010.943216
          -736.638600
          4964.077674
          179.388722
          -423.278860
          546.732719