<?xml version="1.0"?>
<VTKFile type="PolyData" version="0.1" byte_order="LittleEndian">
  <PolyData>
    <Piece NumberOfPoints="396" NumberOfVerts="396" NumberOfLines="0" NumberOfStrips="0" NumberOfPolys="0">
      <Points>
        <DataArray type="Float64" NumberOfComponents="3" format="ascii">
          0.400475 -0.069326 1.825670
          -0.485258 0.060214 1.823383
          -0.781609 0.109463 1.825427
          1.165563 3.765402 -0.500000
          -0.328279 -1.066793 1.030289
          0.742294 0.232699 1.826030
          1.014146 3.713499 -0.500000
          -0.575728 -3.723638 -0.357638
          -0.616828 0.173909 1.825063
          2.637837 -0.897533 -0.446164
          -0.416043 0.071612 1.825262
          -0.775738 -0.723666 1.838864
          0.699799 3.745030 0.081562
          -0.299087 -0.127517 1.826507
          -0.329610 -0.882475 1.825135
          0.761837 3.581623 0.043255
          -0.778339 0.363096 1.830688
          2.197694 -0.824413 -0.282738
          -0.477064 -3.640443 -0.095254
          -0.885658 0.287574 1.825124
          -1.099594 1.024558 -0.500000
          -0.228301 -3.480065 -0.154505
          -0.489651 1.086351 1.422168
          2.183973 -0.836542 -0.285396
          -0.289921 -1.167500 0.989115
          0.771925 3.594308 -0.087791
          -0.462885 1.102678 1.295080
          -0.172215 -0.525752 1.824134
          -1.733049 3.893598 -0.500000
          -0.508951 0.861865 1.824076
          -0.347080 -1.095125 0.992955
          -1.054932 0.759924 1.824802
          -0.727478 -0.697438 1.826505
          -0.346692 -1.195126 1.117955
          -1.684579 3.915649 -0.500000
          1.177957 -3.836250 0.145882
          2.429203 -0.933199 -0.466876
          -0.917815 0.712151 1.827173
          -0.806046 -0.681313 1.823647
          -0.361374 1.135764 0.707973
          -0.690518 -3.701647 -0.139194
          -0.741082 -3.722104 -0.139716
          -3.004741 -0.830775 -0.289243
          -0.389127 -0.807434 1.824473
          1.293681 -3.847791 0.067928
          2.641976 -0.816852 -0.478942
          -0.488574 1.119699 0.914106
          -0.285110 -3.563990 -0.269413
          -0.682372 -3.717977 -0.259887
          0.740723 0.059197 1.821233
          -1.761631 3.902826 -0.500000
          -3.032138 -0.813901 -0.291270
          -0.469292 1.098234 1.449462
          -0.359931 1.082822 0.904029
          -0.353189 0.797254 1.824327
          0.393317 -0.101526 1.827217
          -0.771304 -3.852635 -0.238003
          -1.074310 1.035894 -0.500000
          -0.514354 0.786801 1.810293
          -0.368297 1.193123 1.550095
          -2.942407 -0.812886 -0.294031
          0.320807 0.303182 1.823661
          0.912940 2.423545 0.159128
          2.177817 -0.818998 -0.285102
          -0.496127 -0.444885 1.825133
          -1.023389 0.787973 1.825162
          2.176484 -0.810999 -0.282698
          -0.341975 1.141972 1.580252
          -0.803492 -0.635155 1.834281
          -0.195787 -3.578473 -0.218193
          -0.728327 0.261959 1.825509
          0.670723 3.668185 0.013091
          3.907362 -3.617460 0.494560
          0.356897 0.258334 1.824196
          2.229389 -0.868401 -0.281586
          2.177916 -0.829568 -0.287121
          -2.925230 -0.842860 -0.291691
          2.128484 0.302882 -0.451177
          -0.452815 -0.822328 1.824019
          -0.476166 0.795940 1.824952
          0.848361 0.357807 1.825526
          -0.258114 -0.112810 1.820553
          -1.707121 3.892300 -0.500000
          -0.542036 0.113868 1.824765
          -0.407456 1.136649 1.593380
          -0.570794 -0.655337 1.825318
          0.776977 -3.867004 0.085750
          0.964882 2.493236 -0.004041
          -0.372427 1.148314 0.779944
          -1.756521 3.897625 -0.500000
          1.008787 2.335561 0.105948
          1.349764 3.734089 -0.500000
          0.843574 2.460321 -0.020914
          0.829887 -3.805058 -0.038751
          -0.279642 -0.084011 1.824692
          -0.453533 -3.621543 -0.117145
          0.963167 0.215891 1.817002
          -0.584608 -3.727629 -0.362408
          -0.465456 1.124216 1.585396
          1.107782 0.270118 1.816930
          0.059505 -0.489498 1.826785
          -0.794803 -3.738373 -0.216983
          0.754699 2.381131 0.309678
          0.801368 3.673826 -0.116135
          2.496239 -0.841842 -0.482761
          2.455405 -0.835279 -0.454248
          -1.094590 1.048345 -0.500000
          2.146255 0.272970 -0.448620
          -0.463077 -0.808992 1.811942
          -0.602346 -3.832290 -0.347052
          -1.108388 1.038958 -0.500000
          -0.773570 -3.938203 -0.226855
          -0.528785 0.807978 1.824204
          -1.727305 3.882666 -0.500000
          -2.142280 -0.357555 -0.462162
          0.808316 0.195632 1.812154
          -0.542136 -0.441154 1.826259
          0.215574 -0.442904 1.810661
          -0.735750 0.219677 1.825457
          -0.406888 -0.192021 1.825495
          -0.843648 0.531243 1.826183
          -0.803835 0.230668 1.825056
          -0.534349 0.825293 1.826053
          -0.407934 0.820157 1.826756
          -0.524010 0.123828 1.820655
          0.283085 0.192876 1.824639
          -0.820461 -3.776442 -0.300188
          -0.430808 1.180120 0.838399
          -0.471659 1.095588 0.860181
          -0.258840 -3.598726 -0.220584
          -1.109106 0.746950 1.816686
          0.171430 -0.433394 1.823647
          -2.943482 -0.792198 -0.289998
          -1.702635 3.922187 -0.500000
          -0.225681 -1.185679 -0.267956
          -0.267882 -1.146165 1.089004
          -1.094733 1.047127 -0.500000
          -0.411661 -0.080042 1.826533
          -0.271481 -0.008547 1.826773
          -0.313839 0.812618 1.826139
          -0.189181 -0.814900 1.824003
          -1.087812 1.030401 -0.500000
          -0.593706 -3.706686 -0.192555
          -0.299376 -1.212695 1.136256
          3.952820 -3.748160 0.373767
          -0.374693 -0.875731 1.824429
          -0.799201 -3.756101 -0.327778
          0.025228 -0.427910 1.826223
          0.847115 0.376754 1.826228
          5.591746 -1.927710 -0.492673
          0.939397 2.485198 -0.127972
          2.642991 -0.856942 -0.459961
          -0.400203 1.164723 0.954536
          -0.782979 -3.828306 -0.359662
          0.407088 -0.077425 1.826174
          1.329075 3.831352 -0.500000
          0.899748 0.424776 1.826316
          -0.244815 -1.189219 -0.267914
          0.684021 3.643634 -0.092269
          0.293997 0.228504 1.809282
          -0.283117 -1.232785 1.097928
          -0.593345 -3.840834 -0.358194
          -1.682661 3.898300 -0.500000
          0.825524 3.785025 0.019393
          1.319795 -3.846261 0.005864
          -0.790293 -0.735424 1.808692
          -0.232174 -0.790098 1.824336
          0.962047 2.411903 -0.023216
          -0.958642 0.814149 1.808515
          2.432630 -0.831260 -0.476545
          -0.337133 1.035995 1.389222
          0.968562 2.486798 -0.090787
          1.199127 -3.899858 -0.011207
          -0.219424 -1.156553 -0.300654
          -0.232641 3.564079 0.181245
          -1.102757 1.055029 -0.500000
          0.829718 2.411533 0.000018
          -1.698606 3.899653 -0.500000
          0.724156 -3.794972 0.027283
          2.159859 0.294673 -0.462796
          3.951314 -3.660630 0.190073
          -0.211976 -0.601900 1.804440
          -0.854868 0.599227 1.825465
          -0.215867 -1.145107 -0.285002
          -0.693406 0.377463 1.825251
          0.833970 2.425449 0.038097
          -0.000124 -1.878944 -0.418964
          -0.209498 -0.821655 1.824024
          -1.069499 0.644111 1.826977
          -0.339653 -1.200484 1.087509
          1.152308 -3.862569 0.133035
          3.995254 2.539152 -0.410116
          0.830942 3.803785 -0.048944
          -0.992956 0.781236 1.826574
          -0.384442 1.140555 0.791176
          1.143302 2.414523 -0.029973
          -0.223137 -1.159079 -0.291294
          1.077443 2.402499 -0.098107
          0.754907 -3.927335 -0.041025
          0.609249 -0.073283 1.815007
          -0.373602 1.068631 1.549099
          -0.535980 -0.391363 1.824355
          1.253155 3.820676 -0.500000
          -0.781583 -3.873460 -0.294976
          0.000001 1.878740 -0.418991
          -1.742271 3.899254 -0.500000
          0.303540 0.281653 1.820662
          -0.276279 -1.175570 -0.250858
          1.058644 2.400964 0.072400
          1.028690 2.351280 -0.091642
          3.278126 3.789848 0.224176
          0.352051 0.192405 1.824525
          -0.227225 -1.161023 -0.282644
          -0.638636 -0.788491 1.824878
          -0.156388 -0.848775 1.810047
          -0.196799 -3.602310 -0.134885
          -3.206657 1.265693 0.369899
          -0.505593 -0.368583 1.825441
          -0.807937 -3.833865 -0.275673
          -0.305127 -1.151291 0.988969
          0.735490 0.143841 1.819710
          -0.422173 -1.299838 -0.488121
          0.802682 3.820510 -0.066882
          -3.006708 -0.836108 -0.289860
          -0.384162 1.106686 0.906084
          1.297093 -3.807219 0.087104
          -0.835269 0.604359 1.825323
          -1.110725 1.046871 -0.500000
          -0.222910 -1.177888 -0.269469
          0.211251 -0.445922 1.811762
          0.651862 3.774202 -0.036939
          0.344886 0.058534 1.825563
          0.133456 -0.480678 1.826333
          -0.285431 -3.535235 -0.135033
          0.994326 3.786185 -0.500000
          1.043330 0.409274 1.825383
          -0.173765 -3.541989 -0.190006
          -0.297459 0.078560 1.826320
          -0.258577 -1.226668 -0.239777
          0.734285 3.623825 0.043367
          -1.118277 0.737799 1.825969
          -2.937896 -0.793292 -0.290472
          -0.405518 -0.067332 1.824224
          0.651465 3.716460 -0.048582
          -0.682513 -3.789071 -0.160887
          -0.413804 -0.876764 1.824625
          -3.196385 1.258207 0.351483
          1.015856 3.685471 -0.500000
          0.837839 3.707884 0.050881
          1.305857 3.795206 -0.500000
          -0.323013 -3.516556 -0.114937
          -0.443527 -1.296865 -0.494160
          -0.733950 -0.666238 1.827140
          1.149508 -3.810686 0.172130
          1.338066 3.767476 -0.500000
          1.044026 0.417019 1.826069
          2.187190 -0.825654 -0.284609
          0.998489 3.740190 -0.500000
          2.652935 -0.800353 -0.482137
          -0.474150 -0.343018 1.824628
          0.196817 -0.450133 1.813271
          1.326750 3.796577 -0.500000
          -0.529487 -0.508739 1.825196
          0.845905 0.181457 1.827545
          -0.423200 0.880059 1.826696
          0.132467 -0.424625 1.823864
          0.736802 -0.002535 1.823654
          0.056231 -0.429671 1.807411
          -0.776851 -0.571723 1.823647
          -1.102687 0.753222 1.823630
          1.245647 -3.886276 0.040723
          0.623384 0.235391 1.825496
          0.380988 0.165415 1.826753
          0.747889 -3.863125 0.004667
          0.364508 -0.023219 1.826694
          -0.845603 0.348552 1.826382
          2.685750 -0.873290 -0.500000
          1.004370 3.821438 -0.500000
          -0.593087 -0.373485 1.825247
          -0.324327 -1.198933 1.129941
          1.011809 3.772182 -0.500000
          0.793759 0.223664 1.826993
          -0.373061 0.817958 1.817902
          0.983216 0.341017 1.809273
          2.467159 -0.897500 -0.465341
          1.126947 0.327538 1.825388
          -0.111714 -0.555276 1.823835
          -0.413555 -0.329298 1.824962
          -3.195402 1.309715 0.320057
          0.758347 -3.852256 0.048134
          -2.128858 -0.354167 -0.450458
          -2.952278 -0.833304 -0.287200
          2.187410 -0.821579 -0.285523
          -0.417684 -1.236075 -0.465338
          -0.438175 1.098739 0.680088
          -0.246158 1.082222 1.403831
          0.753462 -0.049938 1.824165
          -0.296753 -0.070834 1.824186
          1.198252 3.649370 -0.500000
          -0.061969 -0.602740 1.824107
          -0.583833 -0.802259 1.823647
          -0.348814 -1.191980 1.094947
          -0.260147 -3.574464 -0.184854
          -0.944405 0.562592 1.825120
          -0.287662 1.099562 1.373658
          1.113860 3.818790 -0.500000
          -0.394823 1.146457 1.589409
          -1.094680 1.047456 -0.500000
          1.118568 2.435822 0.108452
          -0.518068 -3.708501 -0.243328
          1.018629 0.437975 1.827140
          0.939030 -3.804434 0.006875
          -0.458095 1.068019 0.739190
          1.138235 -3.888617 -0.022404
          -0.328268 1.135923 0.768018
          0.599371 0.117403 1.826097
          2.694477 -0.899435 -0.480923
          0.752296 -3.846992 -0.013894
          -3.188473 1.296630 0.270281
          0.958625 2.423886 0.100119
          -2.143152 -0.351294 -0.455547
          -2.146214 -0.361403 -0.459666
          2.445781 -0.932313 -0.500000
          -0.428839 -1.283584 -0.451589
          -2.147104 -0.359347 -0.453710
          -0.389283 1.131884 1.586395
          0.860526 0.072312 1.812719
          0.293584 0.299378 1.822432
          0.862732 -3.755018 -0.000310
          -0.446445 0.879313 1.825308
          2.541505 -0.962266 -0.467948
          0.857101 3.751703 -0.046693
          -0.457233 -3.680070 -0.220423
          -2.149866 -0.359053 -0.453507
          -0.669114 -0.719446 1.823647
          0.777145 -3.820327 0.069563
          1.269978 -3.858801 0.089297
          -0.199343 -3.651945 -0.102111
          -0.430493 1.114508 1.282604
          -0.235039 -1.157478 -0.285443
          0.542830 -0.090637 1.823730
          -0.375489 1.120909 0.756463
          -0.434828 -0.026931 1.825850
          -2.146874 -0.353115 -0.454902
          0.858603 -3.877954 0.048712
          -0.771581 -0.699166 1.823647
          -0.365284 0.822466 1.824344
          1.087568 0.369706 1.824872
          2.620850 -0.913136 -0.500000
          0.352763 0.195188 1.826968
          0.772550 3.771009 -0.091852
          -2.978631 -0.864013 -0.292674
          -0.329899 1.101951 1.288808
          0.391346 0.038104 1.825615
          -2.137372 -0.344169 -0.461529
          1.025035 0.195129 1.816733
          0.792387 0.057110 1.818454
          0.980284 -3.794910 0.013894
          0.450760 -0.117672 1.827248
          0.967598 2.505061 -0.029193
          -0.084499 -0.557513 1.825126
          0.209786 -0.470588 1.816352
          -0.689754 0.332604 1.825334
          -1.674129 3.906281 -0.500000
          -0.336420 0.040397 1.827429
          -0.981521 0.726539 1.826479
          -1.105655 1.040778 -0.500000
          0.721435 -3.878249 0.015510
          -0.364434 1.149219 0.818642
          -3.021904 -0.797933 -0.289725
          -0.290882 -1.206443 1.140685
          -0.651008 0.190958 1.825319
          0.968540 2.287561 0.081573
          -0.446823 1.115299 1.284547
          -0.176005 -0.685289 1.824922
          1.042685 2.361969 0.088093
          -0.275993 -0.389169 1.804285
          -2.147914 -0.364128 -0.463467
          1.282141 -3.854122 0.098388
          1.244620 -3.819019 0.015505
          0.999997 3.723338 -0.500000
          1.056016 -3.896661 0.052641
          -0.439943 1.104660 1.282291
          -2.952076 -0.770309 -0.292200
          -0.364340 -0.908462 1.824538
          0.651884 3.622719 0.064378
          -0.781559 0.489055 1.826206
          0.170768 -0.474041 1.822199
          1.335057 3.645890 -0.500000
          -0.581422 -0.400250 1.824860
          -1.038980 0.807255 1.823624
          -0.781335 0.416887 1.825149
          -0.357713 -0.480315 1.824461
          -0.158438 -0.841711 1.810002
          1.267799 3.692238 -0.500000
          -0.295345 -3.594915 -0.138779
        </DataArray>
      </Points>
      <PointData Scalars="density">
        <DataArray type="Float64" Name="density" format="ascii">
          847.652373
          1004.853349
          663.860489
          1141.035967
          838.751763
          987.585330
          909.331113
          910.005670
          915.354600
          980.700762
          1005.439255
          940.594955
          924.715018
          991.599904
          953.479851
          868.909007
          1044.459600
          774.557647
          802.320520
          795.355297
          917.890443
          865.904984
          962.140312
          775.891706
          885.793934
          910.693284
          811.036949
          819.251221
          1000.368761
          933.381725
          807.577215
          1046.898376
          1049.758834
          975.611273
          988.281645
          974.931677
          858.538454
          1035.306997
          864.651857
          935.270722
          958.755309
          918.939730
          963.856706
          1021.106080
          980.581377
          893.782090
          857.955730
          898.825106
          1217.293467
          960.641038
          978.232976
          944.057197
          1020.280622
          953.359870
          884.751048
          738.562037
          1033.924358
          917.317381
          894.996275
          854.651914
          979.906341
          844.346240
          912.766885
          753.989361
          973.551498
          1027.210128
          748.186125
          875.200253
          896.762943
          921.873578
          1037.501352
          1063.117000
          500.000000
          928.594213
          759.121269
          759.724508
          958.341417
          500.000000
          949.045124
          986.084192
          994.128227
          874.007361
          1004.838430
          912.556553
          894.422686
          1083.386419
          976.227316
          1145.507120
          1078.303519
          980.366274
          1029.004299
          857.074100
          931.619567
          997.129155
          972.316598
          880.272050
          1089.407609
          910.405503
          831.004457
          777.540400
          1058.692450
          1038.691191
          500.000000
          999.554348
          1001.272092
          939.081604
          924.499983
          500.000000
          973.430777
          937.617498
          923.288591
          779.898842
          897.852765
          998.123626
          833.395481
          1122.450124
          974.077959
          913.574867
          978.066613
          1036.753536
          937.655026
          926.003782
          904.905565
          1005.447422
          913.147859
          965.937460
          965.000478
          1035.913835
          996.153003
          993.551025
          921.643579
          961.704122
          965.040075
          995.663512
          949.944514
          977.882533
          925.072721
          1103.390220
          941.097889
          800.131174
          944.267780
          924.188496
          1080.643092
          939.203340
          500.000000
          947.632745
          1009.402059
          988.593479
          887.508426
          500.000000
          896.274379
          975.852398
          883.017647
          947.626045
          837.579864
          837.032427
          892.798318
          955.548457
          986.665717
          927.926084
          946.115317
          886.703870
          984.917358
          977.018700
          847.854706
          900.514142
          1018.477906
          1243.769784
          900.358520
          941.362011
          954.232394
          996.276075
          969.940185
          934.979216
          500.000000
          924.725357
          907.967637
          1001.973120
          941.796299
          500.000000
          500.000000
          890.041450
          939.093754
          932.647968
          964.180461
          966.952687
          500.000000
          979.969689
          978.290191
          989.877201
          1012.694544
          500.000000
          936.455310
          1024.903348
          1102.033924
          833.613083
          938.339510
          918.366168
          850.294402
          787.450323
          994.065358
          943.256666
          994.501987
          979.960102
          500.000000
          991.617602
          857.250099
          924.794237
          1080.097172
          932.465856
          500.000000
          1066.051977
          949.184088
          991.943799
          813.749943
          923.243671
          500.000000
          957.573384
          1014.515710
          888.784219
          1066.822307
          500.000000
          892.183561
          968.833354
          996.868926
          923.964195
          906.071607
          923.735487
          947.995246
          918.295779
          937.606859
          1050.392506
          1050.101036
          1009.361564
          858.635368
          828.809463
          868.825512
          845.184917
          891.439317
          987.460995
          906.593524
          960.763520
          1112.809517
          1025.253672
          1076.933310
          944.615853
          500.000000
          844.478140
          1008.215014
          931.528878
          919.281183
          500.000000
          1032.973890
          874.213813
          886.221502
          813.323671
          752.905739
          867.335874
          898.205059
          978.073819
          966.555341
          891.908241
          1004.446299
          1141.552680
          998.479187
          992.190111
          871.004463
          1023.685449
          857.754615
          925.694563
          1031.227237
          821.010047
          1088.917370
          1012.158741
          932.196484
          952.152042
          874.912422
          826.963007
          842.454556
          957.092506
          926.775173
          1110.163543
          965.112466
          1058.931861
          979.422711
          780.038444
          899.981785
          974.111040
          500.000000
          1013.576037
          833.070654
          984.383060
          775.577969
          511.342398
          850.537229
          788.871155
          708.762266
          1011.276044
          961.317549
          915.287722
          962.691907
          992.582156
          1031.384615
          968.225371
          900.098384
          1049.364552
          892.603926
          925.121559
          870.298811
          1011.105932
          882.273339
          1002.814671
          923.674001
          958.001551
          994.753144
          1007.227527
          827.836607
          1011.247345
          500.000000
          1150.491848
          834.174313
          834.110829
          891.883659
          505.526517
          834.218896
          921.289503
          907.272670
          807.820090
          965.658297
          993.761709
          941.531306
          975.108659
          977.131420
          834.505320
          1069.450996
          1004.276019
          1012.744176
          811.803619
          785.322217
          952.512056
          786.721332
          1069.261810
          1084.403691
          834.602720
          1047.137926
          947.264723
          935.761883
          834.083679
          1003.262530
          1058.414587
          1042.124821
          964.647539
          809.623811
          1071.078151
          834.063342
          825.703209
          951.414844
          984.165168
          752.739358
          1111.428235
          932.045552
          899.810349
          981.751370
          979.861519
          1024.884146
          1091.363358
          924.350132
          940.095481
          1086.618951
          956.932255
          942.350824
          951.606191
          927.956456
          793.613843
          960.929346
          1053.622768
          739.592019
          831.627957
          991.075832
          1010.220695
          850.720467
          994.524285
          797.686141
          954.029203
          893.887059
          861.678489
          921.849255
          978.796375
          712.315399
          887.783827
          937.267812
          992.654261
          852.446684
          830.877182
          982.547718
          1043.545381
        </DataArray>
        <DataArray type="Float64" Name="pressure" format="ascii">
          -4570.428816
          145.600458
          -10084.185341
          4231.079009
          -4837.447096
          -372.440099
          -2720.066617
          -2699.829906
          -2539.361995
          -578.977148
          163.177656
          -1782.151343
          -2258.549454
          -252.002892
          -1395.604477
          -3932.729798
          1333.787990
          -6763.270587
          -5930.384402
          -6139.341100
          -2463.286724
          -4022.850474
          -1135.790643
          -6723.248827
          -3426.181976
          -2679.201477
          -5668.891520
          -5422.463372
          11.062823
          -1998.548237
          -5772.683545
          1406.951273
          1492.765032
          -731.661805
          -351.550653
          -752.049698
          -4243.846366
          1059.209919
          -4060.444284
          -1941.878336
          -1237.340743
          -2431.808110
          -1084.298818
          633.182392
          -582.558681
          -3186.537298
          -4261.328095
          -3035.246832
          6518.804011
          -1180.768870
          -653.010717
          -1678.284095
          608.418648
          -1399.203896
          -3457.468550
          -7843.138890
          1017.730734
          -2480.478565
          -3150.111744
          -4360.442588
          -602.809766
          -4669.612789
          -2616.993455
          -7380.319163
          -793.455052
          816.303839
          -7554.416252
          -3743.992399
          -3097.111702
          -2343.792649
          1125.040565
          1893.510002
          -15000.000000
          -2142.173597
          -7226.361916
          -7208.264761
          -1249.757503
          -15000.000000
          -1528.646281
          -417.474236
          -176.153200
          -3779.779162
          145.152892
          -2623.303413
          -3167.319423
          2501.592566
          -713.180528
          4365.213596
          2349.105569
          -589.011780
          870.128962
          -4287.777011
          -2051.412981
          -86.125350
          -830.502049
          -3591.838498
          2682.228264
          -2687.834901
          -5069.866284
          -6673.787987
          1760.773514
          1160.735735
          -15000.000000
          -13.369550
          38.162755
          -1827.551870
          -2265.000511
          -15000.000000
          -797.076699
          -1871.475063
          -2301.342270
          -6603.034741
          -3064.417048
          -56.291207
          -4998.135584
          3673.503722
          -777.661226
          -2592.753984
          -658.001607
          1102.606091
          -1870.349206
          -2219.886540
          -2852.833062
          163.422669
          -2605.564233
          -1021.876214
          -1049.985663
          1077.415045
          -115.409911
          -193.469238
          -2350.692620
          -1148.876345
          -1048.797741
          -130.094630
          -1501.664591
          -663.524006
          -2247.818365
          3101.706612
          -1767.063324
          -5996.064790
          -1671.966598
          -2274.345134
          2419.292749
          -1823.899814
          -15000.000000
          -1571.017662
          282.061764
          -342.195622
          -3374.747235
          -15000.000000
          -3111.768635
          -724.428071
          -3509.470601
          -1571.218656
          -4872.604067
          -4889.027175
          -3216.050448
          -1333.546275
          -400.028504
          -2162.217486
          -1616.540488
          -3398.883897
          -452.479256
          -689.438996
          -4564.358819
          -2984.575729
          554.337166
          7313.093529
          -2989.244406
          -1759.139674
          -1373.028191
          -111.717764
          -901.794437
          -1950.623531
          -15000.000000
          -2258.239298
          -2760.970887
          59.193587
          -1746.111040
          -15000.000000
          -15000.000000
          -3298.756491
          -1827.187387
          -2020.560959
          -1074.586175
          -991.419384
          -15000.000000
          -600.909323
          -651.294275
          -303.683979
          380.836323
          -15000.000000
          -1906.340715
          747.100452
          3061.017714
          -4991.607517
          -1849.814710
          -2449.014961
          -4491.167936
          -6376.490312
          -178.039260
          -1702.300019
          -164.940394
          -601.196933
          -15000.000000
          -251.471950
          -4282.497026
          -2256.172882
          2402.915162
          -2026.024327
          -15000.000000
          1981.559314
          -1524.477349
          -241.686018
          -5587.501715
          -2302.689878
          -15000.000000
          -1272.798478
          435.471299
          -3336.473427
          2004.669198
          -15000.000000
          -3234.493156
          -934.999384
          -93.932232
          -2281.074136
          -2817.851779
          -2287.935378
          -1560.142607
          -2451.126621
          -1871.794234
          1511.775191
          1503.031076
          280.846914
          -4240.938969
          -5135.716109
          -3935.234627
          -4644.452480
          -3256.820497
          -376.170155
          -2802.194287
          -1177.094400
          3384.285504
          757.610158
          2307.999295
          -1661.524403
          -15000.000000
          -4665.655794
          246.450406
          -2054.133650
          -2421.564509
          -15000.000000
          989.216702
          -3773.585619
          -3413.354929
          -5600.289865
          -7412.827833
          -3979.923794