<?xml version="1.0"?>
<VTKFile type="PolyData" version="0.1" byte_order="LittleEndian">
  <PolyData>
    <Piece NumberOfPoints="396" NumberOfVerts="396" NumberOfLines="0" NumberOfStrips="0" NumberOfPolys="0">
      <Points>
        <DataArray type="Float64" NumberOfComponents="3" format="ascii">
          0.920195 0.179955 1.839667
          -0.713041 0.606220 1.831626
          -0.488719 0.439251 1.833173
          1.451196 3.924765 -0.500000
          0.029523 -1.604060 -0.500000
          1.281703 0.438189 1.834090
          1.385436 3.839548 -0.500000
          -0.896797 -3.844881 -0.500000
          -0.607255 0.475593 1.826303
          2.798168 -1.268239 -0.494132
          -0.698253 -0.284155 1.836206
          -0.833275 -0.596444 1.835522
          1.358741 3.875549 -0.500000
          -0.513183 0.078084 1.828481
          -0.550490 -0.923676 1.845189
          1.202735 3.654721 -0.500000
          -0.943317 0.639054 1.836376
          2.917876 -0.897388 -0.500000
          -0.556392 -3.900356 -0.500000
          -0.549282 0.264176 1.839515
          -1.203118 1.064765 -0.500000
          -0.103506 -3.953859 -0.500000
          -1.093036 1.539367 -0.242169
          2.943261 -0.957853 -0.500000
          -0.131092 -1.636907 -0.473293
          0.837097 3.483995 -0.500000
          -0.993769 1.440708 -0.190178
          -0.070109 -0.611109 1.835815
          -2.012250 3.568531 -0.500000
          -0.552125 1.525803 0.653446
          0.191849 -1.463889 -0.499096
          -0.985688 0.786463 1.837108
          -0.407958 -0.370041 1.838396
          -0.056995 -1.135304 -0.500000
          -1.958832 3.582548 -0.500000
          1.235300 -3.935008 -0.500000
          2.786433 -1.060770 -0.500000
          -0.725629 0.480305 1.830464
          -0.782654 -0.459804 1.836596
          -0.329507 1.071666 -0.373820
          -0.940653 -3.818025 -0.500000
          -0.366750 -3.821381 -0.500000
          -3.668357 -1.075828 -0.500000
          -0.466917 -0.907882 1.826651
          1.395168 -3.849175 -0.500000
          2.804776 -1.272344 -0.500000
          -0.526851 1.157345 -0.496423
          -0.341812 -3.989692 -0.500000
          -0.373689 -3.859914 -0.500000
          1.050877 0.112242 1.833404
          -2.023667 3.565342 -0.500000
          -3.596568 -1.069409 -0.500000
          -1.097217 1.522262 -0.256724
          -0.414372 1.149617 -0.353973
          -0.463733 1.606358 0.614940
          1.145978 0.269389 1.837044
          -0.891866 -3.806845 -0.500000
          -1.201588 1.069878 -0.500000
          -0.488713 1.499628 0.598284
          -1.148497 1.320604 -0.149284
          -3.639369 -1.077051 -0.500000
          0.394761 -0.289068 1.836860
          0.935607 2.881558 -0.500000
          2.639197 -0.873731 -0.495647
          -0.684942 -0.471699 1.840326
          -0.953983 0.829213 1.832780
          2.674868 -0.911358 -0.500000
          -1.133031 1.314859 -0.271188
          -0.783640 -0.553148 1.836054
          -0.102210 -3.890754 -0.500000
          -0.659967 0.584652 1.836579
          1.000795 3.384304 -0.500000
          4.006190 -3.082346 -0.372177
          0.429218 -0.384359 1.834617
          2.845111 -1.173123 -0.500000
          2.618517 -1.026407 -0.500000
          -3.645846 -1.036654 -0.500000
          2.297732 0.183114 -0.500000
          -0.362154 -0.702027 1.837683
          -0.501994 1.445446 0.561210
          1.268017 0.437094 1.835805
          -0.536395 0.010794 1.835966
          -1.996876 3.567994 -0.500000
          -0.594940 0.076433 1.834024
          -1.085391 1.328141 -0.227940
          -0.589359 -0.281315 1.831789
          0.838192 -3.807900 -0.500000
          1.061205 2.878518 -0.500000
          -0.342991 1.149005 -0.439038
          -1.997895 3.585996 -0.500000
          0.860983 2.926972 -0.500000
          1.426929 3.946583 -0.500000
          1.083348 2.722496 -0.500000
          0.833302 -3.814875 -0.500000
          -0.520908 -0.027405 1.835803
          -0.774267 -3.814097 -0.500000
          1.242927 0.457109 1.835928
          -0.151791 -3.827930 -0.500000
          -0.920353 1.558225 -0.212797
          1.225801 0.434739 1.835956
          -0.048286 -0.607560 1.837509
          -0.717409 -3.824041 -0.500000
          2.669234 2.283678 -0.496588
          0.857245 3.462092 -0.500000
          2.908563 -1.011797 -0.465121
          2.712394 -0.842840 -0.500000
          -1.214883 1.052185 -0.500000
          2.235451 0.063067 -0.500000
          -0.450120 -0.856461 1.829268
          -0.586444 -3.902516 -0.500000
          -1.209794 1.048236 -0.500000
          -0.925630 -3.836060 -0.500000
          -0.513319 1.569387 0.523972
          -2.013790 3.553552 -0.500000
          -2.176166 -0.312796 -0.500000
          1.304970 0.358221 1.832750
          -0.382191 -0.297505 1.837136
          -0.184775 -0.551083 1.840062
          -0.660909 0.325818 1.824757
          -0.146732 -0.577977 1.832599
          -0.537126 0.459158 1.832533
          -0.524943 0.454169 1.837240
          -0.533445 1.530444 0.588753
          -0.510359 1.522706 0.554885
          -0.674060 0.158973 1.840696
          0.326762 -0.311545 1.838664
          -0.982422 -3.852479 -0.500000
          -0.390683 1.069152 -0.446985
          -0.427746 1.044856 -0.450495
          -0.136237 -3.955278 -0.500000
          -1.030606 0.784372 1.832792
          -0.061677 -0.479895 1.832215
          -3.640685 -1.105618 -0.500000
          -1.999100 3.602594 -0.500000
          0.125420 -1.279693 -0.500000
          0.240126 -1.399127 -0.490388
          -1.216080 1.052270 -0.500000
          -0.828759 -0.728520 1.836422
          -0.467867 -0.274614 1.839452
          -0.559174 1.495041 0.638746
          -0.491412 -0.973310 1.827483
          -1.204842 1.050149 -0.500000
          -0.581553 -3.907361 -0.500000
          -0.148031 -1.571961 -0.487116
          3.967347 -3.072855 -0.395678
          -0.777418 -0.873106 1.827877
          -0.931806 -3.887145 -0.500000
          -0.450556 -0.228751 1.835846
          0.747365 0.128638 1.843168
          5.387689 -2.475940 -0.500000
          1.152268 2.777519 -0.500000
          2.907937 -1.152046 -0.500000
          -0.438600 1.150507 -0.417278
          -0.938589 -3.862868 -0.500000
          0.646430 0.100763 1.836399
          1.439240 3.902175 -0.500000
          0.794725 0.144520 1.832833
          0.129493 -1.260139 -0.500000
          0.890157 3.369624 -0.500000
          0.421202 -0.227235 1.835626
          0.124610 -1.511349 -0.500000
          -0.371366 -3.910713 -0.500000
          -2.005626 3.546222 -0.500000
          0.899176 3.313117 -0.500000
          0.995066 -3.728954 -0.500000
          -0.663502 -1.013626 1.714630
          -0.653483 -1.043921 1.811757
          0.943516 2.938467 -0.500000
          -1.016623 0.783724 1.835948
          2.719068 -1.090705 -0.500000
          -1.148747 1.337070 -0.271263
          0.873947 2.699217 -0.500000
          1.347221 -3.848304 -0.500000
          -0.164348 -1.597264 -0.498523
          -1.434457 3.085146 -0.495033
          -1.198988 1.054271 -0.500000
          1.100237 2.886282 -0.500000
          -1.977564 3.570198 -0.500000
          0.917426 -3.689385 -0.500000
          2.253633 0.072639 -0.500000
          4.046460 -3.055222 -0.356644
          -0.224664 -0.549250 1.840196
          -0.765168 0.651616 1.831795
          -0.128558 -1.534494 -0.493147
          -1.024012 0.731688 1.834039
          0.896837 2.761459 -0.500000
          0.231983 -1.522297 -0.477588
          -0.491833 -0.967168 1.837563
          -0.722845 0.535382 1.840219
          -0.061711 -1.336538 -0.488380
          0.936392 -3.738974 -0.500000
          5.012044 3.948591 -0.500000
          0.933852 3.453975 -0.500000
          -0.969542 0.839123 1.836414
          -0.447915 1.077940 -0.309901
          0.809041 2.867165 -0.500000
          0.098687 -1.509403 -0.492378
          1.033605 2.917270 -0.500000
          1.151906 -3.866052 -0.500000
          0.357898 -0.443184 1.835082
          -1.094231 1.332714 -0.311589
          -0.853742 -0.722134 1.836664
          1.490930 3.841591 -0.500000
          -0.996357 -3.808315 -0.500000
          0.000001 1.442786 -0.500000
          -2.023511 3.585951 -0.500000
          0.315326 -0.382671 1.835969
          -0.069481 -1.238736 -0.500000
          1.101360 2.668670 -0.500000
          0.828915 2.893822 -0.500000
          4.407539 3.542663 -0.500000
          0.337458 -0.396899 1.832292
          -0.195243 -1.429809 -0.497552
          -0.861571 -0.680198 1.836726
          -0.373667 -0.406409 1.835847
          -0.190757 -3.877176 -0.500000
          -3.110810 1.716623 -0.388899
          -0.681179 -0.289725 1.834807
          -0.520700 -3.940388 -0.500000
          -0.117171 -1.617709 -0.482952
          0.464053 -0.327849 1.834549
          -0.092873 -1.440083 -0.500000
          0.894435 3.290819 -0.500000
          -3.585629 -1.067634 -0.500000
          -0.413914 1.191836 -0.456755
          1.351611 -3.880007 -0.500000
          -0.784464 0.634742 1.831844
          -1.188518 1.057530 -0.500000
          -0.127159 -1.177596 -0.500000
          -0.067060 -0.602850 1.834493
          0.862810 3.524639 -0.500000
          0.716106 -0.052950 1.841357
          -0.717422 -0.648374 1.836220
          -0.104560 -3.911438 -0.500000
          0.960411 3.600669 -0.500000
          1.228375 0.349641 1.836159
          -0.066325 -3.872336 -0.500000
          -0.588055 0.120897 1.839271
          0.013571 -1.684497 -0.483376
          1.019552 3.312561 -0.500000
          -0.980307 0.822794 1.836607
          -3.623273 -1.105371 -0.500000
          -0.699600 -0.380739 1.836678
          0.863437 3.331601 -0.500000
          -0.940681 -3.807577 -0.500000
          -0.669528 -0.862881 1.837439
          -3.116781 1.697131 -0.395537
          1.294953 3.659793 -0.500000
          0.876717 3.407683 -0.500000
          1.450376 3.940111 -0.500000
          -0.567462 -3.934824 -0.500000
          0.005694 -1.163911 -0.500000
          -0.458498 -0.673777 1.832626
          1.248664 -3.727569 -0.500000
          1.492840 3.850819 -0.500000
          1.019121 0.184382 1.832348
          2.782259 -0.890123 -0.500000
          1.084898 3.694050 -0.500000
          2.622161 -0.892831 -0.500000
          -0.690637 -0.563344 1.835534
          -0.743264 -0.488175 1.834562
          1.299270 3.665620 -0.500000
          -0.436975 -0.925103 1.831364
          0.758797 -0.029184 1.840448
          -0.434437 1.513904 0.608542
          -0.108298 -0.513346 1.837786
          0.992583 0.138454 1.833356
          -0.849675 -0.756841 1.835066
          -0.865790 -0.635502 1.836818
          -0.968808 0.832550 1.836374
          1.402935 -3.844171 -0.500000
          0.889608 0.197105 1.836602
          0.611516 -0.048386 1.836872
          1.054655 -3.824782 -0.500000
          0.631943 -0.037417 1.839670
          -0.619693 0.096562 1.838095
          2.638288 -0.862720 -0.489778
          1.059390 3.473165 -0.500000
          -0.829949 -0.757915 1.836953
          -0.017520 -1.638161 -0.481879
          1.032806 3.688744 -0.500000
          0.616672 -0.034723 1.835420
          -0.452505 1.519210 0.608217
          1.256435 0.272257 1.836657
          2.805811 -1.273249 -0.499688
          1.043106 0.193327 1.827925
          -0.106291 -0.388762 1.838599
          -0.328370 -0.442651 1.839521
          -3.098388 1.693472 -0.385633
          0.888639 -3.821195 -0.500000
          -2.177921 -0.316331 -0.500000
          -3.653193 -1.083768 -0.500000
          2.867434 -0.860683 -0.500000
          -0.047194 -1.192619 -0.500000
          -0.375490 1.111255 -0.340756
          -1.082471 1.350596 -0.283953
          1.069989 0.232143 1.833125
          -0.625553 0.204781 1.837477
          1.402903 3.907420 -0.500000
          -0.651105 -0.157571 1.837419
          -0.597247 -1.020928 1.703416
          0.124031 -1.282061 -0.500000
          -0.551459 -3.926809 -0.500000
          -0.735562 0.544003 1.829242
          -1.025243 1.500321 -0.233509
          1.068529 3.667413 -0.500000
          -0.953737 1.574815 -0.224532
          -1.204413 1.053493 -0.500000
          1.144931 2.768904 -0.500000
          -0.122698 -3.847189 -0.500000
          1.200621 0.122935 1.836680
          1.431126 -3.868927 -0.500000
          -0.391675 1.119349 -0.500000
          1.145606 -3.946065 -0.500000
          -0.460356 1.205585 -0.448120
          0.784587 0.014214 1.834816
          2.882544 -1.178595 -0.500000
          0.844233 -3.769593 -0.500000
          -2.936312 1.746711 -0.427843
          1.187519 2.794795 -0.500000
          -2.179494 -0.326726 -0.500000
          -2.169383 -0.325516 -0.500000
          2.711419 -1.187072 -0.499300
          -0.077264 -1.173518 -0.500000
          -2.179340 -0.311196 -0.500000
          -0.940545 1.350867 -0.250209
          1.220202 0.296823 1.836043
          0.421348 -0.356038 1.838572
          0.867623 -3.831078 -0.500000
          -0.501984 1.562502 0.545213
          2.682933 -0.877340 -0.500000
          1.210392 3.756705 -0.500000
          -0.194314 -3.914141 -0.500000
          -2.176793 -0.313813 -0.500000
          -0.530907 -1.061945 1.726035
          0.809432 -3.820490 -0.500000
          1.406275 -3.858270 -0.500000
          -0.625125 -3.921506 -0.500000
          -0.993208 1.486790 -0.330536
          0.017385 -1.769813 -0.481975
          0.376983 -0.306760 1.841496
          -0.440817 1.090227 -0.315388
          -0.497107 -0.158375 1.836178
          -2.177996 -0.322085 -0.500000
          0.837913 -3.867279 -0.500000
          -0.614515 -1.016750 1.665046
          -0.446891 1.598257 0.620229
          1.246091 0.377163 1.836522
          2.942532 -1.180976 -0.500000
          0.339885 -0.269088 1.840472
          1.019519 3.650911 -0.500000
          -3.616500 -1.020947 -0.500000
          -0.952746 1.384147 -0.270469
          0.288494 -0.301456 1.842335
          -2.186751 -0.321689 -0.500000
          0.824765 0.031703 1.836191
          0.815220 -0.015336 1.842794
          1.242717 -3.869739 -0.500000
          0.799742 0.175066 1.835343
          0.948138 2.803261 -0.500000
          -0.209851 -0.357238 1.839491
          -0.081449 -0.479199 1.839002
          -0.597173 0.484369 1.835080
          -1.963703 3.598737 -0.500000
          -0.524547 -0.063872 1.838457
          -0.437573 0.232902 1.839234
          -1.213273 1.060773 -0.500000
          0.805474 -3.807378 -0.500000
          -0.402174 1.200306 -0.409633
          -3.601541 -1.097928 -0.500000
          0.092798 -1.182189 -0.500000
          -0.531882 0.421286 1.838365
          1.145647 2.705803 -0.500000
          -0.965569 1.511664 -0.203360
          -0.389570 -0.254942 1.831529
          0.824181 2.871183 -0.500000
          -0.307359 -0.580375 1.834430
          -2.176183 -0.314297 -0.500000
          1.370611 -3.830603 -0.500000
          1.282352 -3.769499 -0.500000
          1.158527 3.724149 -0.500000
          1.110001 -3.834651 -0.500000
          -0.991222 1.373933 -0.189870
          -3.659365 -1.066879 -0.500000
          -0.590156 -1.029005 1.681951
          0.911967 3.355421 -0.500000
          -0.857935 0.678284 1.836952
          -0.068414 -0.489122 1.835652
          1.240557 3.821747 -0.500000
          -0.652633 -1.038837 1.816552
          -0.900453 0.803054 1.837111
          -0.524643 0.205669 1.839338
          -0.691285 -0.260829 1.838826
          -0.509982 -0.746727 1.834395
          1.451141 3.943216 -0.500000
          -0.203857 -3.891525 -0.500000
        </DataArray>
      </Points>
      <PointData Scalars="density">
        <DataArray type="Float64" Name="density" format="ascii">
          993.938015
          988.775643
          874.693880
          940.181834
          974.947404
          824.460213
          1077.725836
          960.506030
          1087.123157
          724.458432
          881.717210
          1017.346009
          1064.676498
          966.249775
          1090.276863
          865.472071
          943.397152
          745.160275
          932.286271
          1062.878801
          943.021462
          901.597401
          939.996198
          750.794051
          819.772186
          1005.865016
          1139.962280
          891.542299
          1006.044810
          940.206679
          778.859161
          1007.334072
          939.050710
          738.296063
          986.986693
          974.014168
          1173.956667
          1004.959472
          926.356340
          938.158406
          903.531274
          917.814814
          982.581166
          955.991851
          947.962924
          783.562151
          828.310612
          922.699620
          989.304663
          885.796765
          996.305732
          982.590189
          957.358083
          1069.340599
          928.827418
          1060.068451
          951.901984
          942.510197
          1017.753997
          777.865899
          998.934546
          1002.863470
          1078.658583
          826.358569
          985.273467
          952.515680
          971.037872
          962.371097
          1045.395065
          970.398208
          995.685361
          1029.535936
          500.000000
          931.535612
          984.826642
          847.107358
          972.125194
          500.000000
          707.403915
          897.834234
          827.907832
          986.371306
          1009.272099
          983.622128
          1052.825701
          1032.281738
          995.040248
          1054.529283
          1024.643466
          1008.729223
          865.557175
          926.240573
          942.586432
          990.071693
          972.083106
          950.149429
          800.252332
          991.278528
          767.554344
          858.140722
          871.666777
          931.224024
          500.000000
          1045.098514
          928.789930
          882.514597
          939.114896
          500.000000
          900.185141
          930.401714
          939.451166
          952.005033
          934.522893
          998.114502
          834.825597
          867.351723
          896.318137
          1111.154946
          1010.636911
          1071.922525
          988.304531
          968.117134
          1012.183262
          1010.030255
          859.352274
          970.508883
          839.797409
          1037.602224
          977.172500
          968.150475
          916.281110
          949.525183
          979.178378
          997.596538
          899.572675
          627.697897
          939.217576
          983.232637
          1005.107017
          937.120623
          1002.235385
          939.196496
          930.413023
          834.615214
          500.000000
          862.768829
          908.554080
          959.992886
          999.516845
          500.000000
          881.398625
          906.370810
          1103.641883
          905.132883
          819.892066
          983.429350
          1029.816429
          870.670072
          1076.468293
          885.087489
          928.531473
          1018.274355
          997.934652
          986.898793
          964.109562
          867.965598
          907.029704
          984.958741
          935.108091
          1062.321526
          954.239236
          695.195509
          1037.402128
          825.609018
          500.000000
          939.991570
          951.868263
          1003.948193
          887.554679
          500.000000
          500.000000
          1092.961904
          999.680730
          931.288411
          899.226564
          954.976715
          614.011369
          1008.022395
          1026.730950
          986.261634
          1036.637466
          500.000000
          1172.213074
          924.759393
          897.882415
          796.563615
          912.892099
          996.788615
          1039.501865
          849.479997
          1000.662881
          932.182358
          886.615714
          832.691413
          500.000000
          998.485378
          923.650113
          907.288078
          784.720206
          808.683744
          500.000000
          936.696301
          655.284276
          959.289648
          940.030612
          1065.391279
          500.000000
          908.269942
          913.285349
          890.249566
          932.482061
          997.143783
          902.650694
          968.791365
          1051.984666
          1015.693929
          1022.404830
          939.170323
          703.571431
          909.494630
          982.067053
          879.855156
          1045.837249
          960.960876
          994.720714
          1018.912996
          883.948938
          1012.693801
          800.725433
          808.361764
          967.189427
          980.911593
          941.531176
          973.174295
          912.118525
          1085.784827
          500.000000
          833.069267
          1098.902283
          916.028997
          901.273975
          820.605463
          700.223645
          893.900758
          871.954873
          993.457106
          993.903792
          876.732709
          789.427409
          1013.155101
          1001.227326
          804.502139
          866.915354
          936.487953
          976.566985
          1067.655020
          996.742764
          904.887111
          949.477763
          924.642594
          932.112753
          981.351267
          769.578550
          1064.326678
          815.325796
          968.898649
          809.364525
          1008.589748
          919.773397
          954.975993
          865.772389
          762.801488
          998.346262
          955.670596
          750.436340
          994.312996
          863.291444
          987.245015
          500.000000
          1066.960175
          835.191172
          990.835730
          798.607616
          861.161805
          1026.329067
          1089.385866
          1013.262108
          999.322607
          1016.573754
          879.323042
          927.833688
          871.154878
          924.092576
          1012.923447
          1111.706974
          916.029982
          836.101489
          938.912727
          926.606849
          956.194995
          711.272430
          871.066564
          965.136080
          812.480517
          970.721232
          1052.304106
          931.870260
          1000.213630
          500.000000
          760.237601
          833.079047
          834.222912
          827.594984
          823.621321
          833.391412
          960.347953
          1038.441200
          968.432057
          1028.155780
          988.647969
          929.198824
          959.730892
          1071.444072
          835.100894
          894.991071
          937.499049
          923.107405
          920.604977
          1009.113211
          500.000000
          1010.411238
          949.284874
          994.584770
          835.096385
          939.954827
          795.869174
          918.563897
          967.093571
          787.701855
          958.328253
          930.382591
          953.172859
          1046.126541
          925.571726
          834.889934
          1070.644980
          972.372513
          1084.335423
          984.401057
          1133.760614
          918.734686
          1021.888787
          1071.879202
          982.168743
          989.480949
          802.776586
          939.501177
          929.990585
          1040.537165
          975.352680
          829.038724
          1013.292899
          760.056071
          1014.587489
          871.541358
          824.358363
          917.560478
          834.178018
          996.839123
          990.056511
          922.792234
          1049.196338
          1091.626225
          987.249348
          889.240686
          1065.987892
          1067.401646
          973.029813
          978.544465
          919.377825
          1001.219167
          1019.306555
          876.791221
          847.049065
          914.130642
          1076.377866
        </DataArray>
        <DataArray type="Float64" Name="pressure" format="ascii">
          -181.859536
          -336.730702
          -3759.183601
          -1794.544969
          -751.577880
          -5266.193624
          2331.775070
          -1184.819103
          2613.694721
          -8266.247041
          -3548.483714
          520.380277
          1940.294945
          -1012.506754
          2708.305886
          -4035.837876
          -1698.085429
          -7645.191744
          -2031.411867
          1886.364032
          -1709.356130
          -2952.077965
          -1800.114053
          -7476.178468
          -5406.834412
          175.950495
          4198.868405
          -3253.731018
          181.344314
          -1793.799632
          -6634.225161
          220.022168
          -1828.478707
          -7851.118101
          -390.399205
          -779.574952
          5218.700017
          148.784166
          -2209.309789
          -1855.247817
          -2894.061772
          -2465.555565
          -522.565020
          -1320.244484
          -1561.112288
          -6493.135458
          -5150.681625
          -2319.011412
          -320.860104
          -3426.097045
          -110.828043
          -522.294332
          -1279.257519
          2080.217966
          -2135.177448
          1802.053539
          -1442.940467
          -1724.694079
          532.619902
          -6664.023042
          -31.963634
          85.904086
          2359.757492
          -5209.242923
          -441.795981
          -1424.529615
          -868.863842
          -1128.867103
          1361.851943
          -888.053773
          -129.439176
          886.078085
          -15000.000000
          -2053.931629
          -455.200738
          -4586.779272
          -836.244188
          -15000.000000
          -8777.882541
          -3064.972977
          -5162.765025
          -408.860809
          278.162965
          -491.336149
          1584.771029
          968.452143
          -148.792552
          1635.878481
          739.303976
          261.876700
          -4033.284749
          -2212.782810
          -1722.407026
          -297.849206
          -837.506821
          -1495.517130
          -5992.430025
          -261.644164
          -6973.369687
          -4255.778335
          -3849.996702
          -2063.279286
          -15000.000000
          1352.955406
          -2136.302098
          -3524.562078
          -1826.553109
          -15000.000000
          -2994.445782
          -2087.948583
          -1816.465012
          -1439.849009
          -1964.313218
          -56.564927
          -4955.232077
          -3979.448314
          -3110.455885
          3334.648386
          319.107338
          2157.675754
          -350.864068
          -956.485980
          365.497869
          300.907657
          -4219.431793
          -884.733524
          -4806.077740
          1128.066732
          -684.825004
          -955.485750
          -2511.566705
          -1514.244511
          -624.648648
          -72.103860
          -3012.819735
          -11169.063084
          -1823.472735
          -503.020877
          153.210507
          -1886.381325
          67.061553
          -1824.105106
          -2087.609299
          -4961.543565
          -15000.000000
          -4116.935142
          -2743.377589
          -1200.213425
          -14.494662
          -15000.000000
          -3558.041260
          -2808.875712
          3109.256488
          -2846.013517
          -5403.238011
          -497.119511
          894.492857
          -3879.897853
          2294.048797
          -3447.375320
          -2144.055802
          548.230654
          -61.960450
          -393.036211
          -1076.713130
          -3961.032057
          -2789.108874
          -451.237783
          -1946.757265
          1869.645770
          -1372.822911
          -9144.134737
          1122.063837
          -5231.729454
          -15000.000000
          -1800.252910
          -1443.952095
          118.445784
          -3373.359645
          -15000.000000
          -15000.000000
          2788.857130
          -9.578096
          -2061.347678
          -3023.203082
          -1350.698551
          -11579.658927
          240.671850
          801.928507
          -412.150979
          1099.123967
          -15000.000000
          5166.392215
          -2257.218217
          -3063.527537
          -6103.091544
          -2613.237039
          -96.341541
          1185.055959
          -4515.600102
          19.886442
          -2034.529271
          -3401.528587
          -5019.257600
          -15000.000000
          -45.438651
          -2290.496617
          -2781.357666
          -6458.393809
          -5739.487683
          -15000.000000
          -1899.110960
          -10341.471711
          -1221.310559
          -1799.081647
          1961.738375
          -15000.000000
          -2751.901735
          -2601.439517
          -3292.513025
          -2025.538167
          -85.686524
          -2920.479165
          -936.259057
          1559.539985
          470.817871
          672.144889
          -1824.890298
          -8892.857079
          -2715.161111
          -537.988400
          -3604.345318
          1375.117471
          -1171.173710
          -158.378570
          567.389871
          -3481.531874
          380.814019
          -5978.236997
          -5749.147085
          -984.317196
          -572.652207
          -1754.064728
          -804.771156
          -2636.444253
          2573.544801
          -15000.000000
          -5007.922001
          2967.068502
          -2519.130084
          -2961.780758
          -5381.836115
          -8993.290655
          -3182.977271