<?xml version="1.0"?>
<VTKFile type="PolyData" version="0.1" byte_order="LittleEndian">
  <PolyData>
    <Piece NumberOfPoints="686" NumberOfVerts="686" NumberOfLines="0" NumberOfStrips="0" NumberOfPolys="0">
      <Points>
        <DataArray type="Float64" NumberOfComponents="3" format="ascii">
          -0.886453 -0.016322 45.022367
          -0.830386 -0.449103 45.076595
          -0.751693 -0.338103 45.122567
          -0.648158 -0.279869 45.127505
          -0.855324 -0.448453 45.111992
          -0.860991 -0.445045 45.112457
          -0.596283 0.005011 45.304019
          -0.892457 -0.003412 44.742555
          -0.833385 -0.138248 45.007986
          -1.085940 -0.069186 45.337871
          -0.871953 -0.122886 45.042501
          -0.318446 -0.213434 45.114129
          -1.065923 -0.082845 45.350620
          -1.025549 0.011468 45.603685
          -0.934567 0.008990 44.815264
          -0.597683 0.148203 45.132616
          -0.314882 -0.322580 45.282683
          -1.449212 -0.016233 45.133508
          -0.473128 -0.046595 45.607388
          -0.829391 0.069362 45.343129
          -1.063374 -0.061024 45.617436
          -0.883729 -0.050241 44.680532
          -0.777709 -0.049224 44.779061
          -1.447707 -0.049944 45.090527
          -0.107419 -0.098311 44.847420
          -1.448996 -0.050038 45.150037
          -0.617718 -0.050114 45.222338
          -1.119933 -0.050108 45.493831
          -0.935410 -0.109182 44.812914
          -0.598098 -0.248078 45.132838
          -0.311423 0.221020 45.283729
          -1.449210 -0.083785 45.133597
          -0.474770 -0.061701 45.605017
          -0.829839 -0.169124 45.343087
          -1.063302 -0.038884 45.617264
          -0.892187 -0.096495 44.742274
          -0.833187 0.038167 45.007733
          -1.085815 -0.030656 45.337750
          -0.871773 0.022762 45.042704
          -0.323856 0.120370 45.111135
          -1.065670 -0.016935 45.350335
          -1.025483 -0.111479 45.603700
          -0.886092 -0.084092 45.022303
          -0.830226 0.348854 45.076677
          -0.751137 0.238393 45.122385
          -0.647201 0.178721 45.127863
          -0.855142 0.348328 45.112065
          -0.860673 0.344963 45.112404
          -0.615527 -0.110629 45.294074
          0.070696 -0.918371 44.228609
          -0.842309 -0.459929 45.141608
          -2.766359 -1.812591 45.107555
          -0.069173 -0.245865 45.333769
          -2.766256 -1.812037 45.141219
          -0.236929 -0.323637 45.328679
          -0.158877 -0.737126 45.711772
          -0.627642 -0.323289 45.132998
          -1.558800 -0.896313 44.293175
          -0.746031 -0.407140 45.100899
          -0.195459 -0.434804 45.054187
          -0.342598 -0.203264 45.306634
          -1.351805 -0.998722 45.941881
          -0.851126 -0.156093 45.322970
          -2.766109 -0.066247 43.363422
          -0.208071 -0.583953 44.831726
          -5.205224 -0.036996 45.108023
          -2.777746 -1.862049 45.125352
          -5.184370 -0.076720 45.131025
          -0.129173 -0.272792 45.383207
          -2.766463 -0.067322 46.887849
          -0.493943 -0.049972 44.456292
          -0.561562 -0.050006 44.496765
          -2.778312 -0.050000 43.310285
          -5.171011 -0.050000 45.133524
          -2.777266 -0.050000 46.934784
          -0.769512 -0.050272 45.397818
          -0.066766 -0.109185 45.609423
          -2.766109 -0.033753 43.363422
          -0.227118 0.438105 44.840884
          -5.205224 -0.063004 45.108023
          -2.777746 1.762049 45.125352
          -5.184370 -0.023280 45.131025
          -0.131437 0.177754 45.384007
          -2.766463 -0.032678 46.887849
          -0.626783 0.222601 45.132417
          -1.558801 0.796313 44.293175
          -0.745419 0.306542 45.101291
          -0.190999 0.342373 45.063236
          -0.341287 0.101911 45.310152
          -1.351754 0.898686 45.941874
          -0.849171 0.055357 45.320538
          0.070959 0.818284 44.228661
          -0.842091 0.359746 45.141561
          -2.766359 1.712591 45.107555
          -0.068285 0.151626 45.329660
          -2.766256 1.712037 45.141219
          -0.222885 0.223380 45.333070
          -0.208742 0.628223 45.732124
          0.329610 -0.366531 44.995146
          -0.445363 0.036204 45.340881
          -0.641475 -0.056114 44.610068
          -1.600505 -3.527815 45.119856
          -0.881024 -0.152160 45.358085
          -0.371157 -0.210329 45.253345
          -0.117025 -0.192368 45.421509
          -0.669270 -0.087878 44.705078
          -1.440535 -1.200486 43.930297
          -0.309497 -0.351953 45.239419
          -0.637003 -0.274491 45.151770
          -0.159692 -0.219903 45.402033
          -1.422647 -0.989786 46.174257
          -0.464438 0.001966 45.146123
          -0.695435 -0.105402 44.930997
          0.185135 -0.538151 44.767867
          -0.143181 0.241958 45.086917
          -0.177752 -0.082383 45.613314
          0.165648 -0.252254 45.236346
          -0.140837 -0.558392 45.654986
          -0.390586 -0.285455 45.049154
          -1.584035 -0.054552 41.668371
          -0.954293 -0.050038 44.749444
          -0.230084 -0.048568 45.016608
          -0.623562 -0.050083 44.570594
          -0.246371 -0.044249 45.023844
          -1.105926 -0.050116 45.523510
          -1.587384 -0.052378 48.581869
          -0.694788 0.005549 44.930832
          0.113685 0.405833 44.778091
          -0.139518 -0.332999 45.089181
          -0.173787 -0.018101 45.610632
          0.163031 0.147920 45.232842
          -0.066635 0.420639 45.492046
          -0.386346 0.182162 45.053371
          -0.668672 -0.012298 44.704100
          -1.440487 1.100418 43.930227
          -0.303160 0.251689 45.240451
          -0.636687 0.174738 45.151265
          -0.165743 0.124003 45.400413
          -1.422685 0.889808 46.174266
          -0.462852 -0.104848 45.149107
          0.338539 0.302910 45.001480
          -0.448005 -0.070220 45.421195
          -0.641265 -0.043985 44.609974
          -1.583022 3.403972 45.120430
          -0.881503 0.051586 45.358692
          -0.377889 0.117346 45.247312
          -0.114582 0.089216 45.422719
          -0.220102 -0.577105 44.888451
          -1.604784 -0.915885 44.365131
          -1.578881 -3.505816 45.125943
          -0.052975 -0.516438 45.144203
          -1.584864 -3.511721 45.123091
          -1.501300 -0.978988 46.109126
          0.061855 -0.574875 45.566081
          -1.610468 -0.887180 44.374187
          0.145357 -0.967521 44.290344
          -0.197560 -1.464759 43.796475
          -0.257334 -0.034592 45.023014
          -0.294089 -1.401271 46.556597
          -0.100273 -0.579993 45.613520
          -1.296754 -0.975424 45.989223
          -1.575283 -0.051390 41.664812
          -0.165252 -1.460125 43.714367
          -1.441085 -1.195116 43.915824
          -0.087565 -1.648224 45.097729
          -1.332388 -0.985328 45.979330
          -0.229764 -1.442657 46.456086
          -1.583767 -0.048643 48.586445
          -0.434082 -0.049934 44.411757
          -0.366082 -0.056967 45.264752
          0.015395 -0.050005 43.635811
          -0.358299 -0.084621 45.482600
          0.032842 -0.050000 46.671434
          -0.207298 -0.047318 45.502418
          0.097746 -0.050019 45.474807
          -1.601477 -0.060755 41.668696
          -0.165250 1.360124 43.714364
          -1.441084 1.095071 43.915809
          -0.087565 1.548225 45.097729
          -1.332335 0.885417 45.979287
          -0.229764 1.342657 46.456085
          -1.568002 -0.046284 48.585461
          -1.610469 0.787179 44.374187
          0.145330 0.867571 44.290310
          -0.197560 1.364762 43.796471
          -0.153226 -0.062845 44.995975
          -0.294089 1.301271 46.556597
          -0.117198 0.537027 45.759679
          -1.296769 0.875502 45.989142
          -0.212781 0.462404 44.888981
          -1.604784 0.815885 44.365131
          -1.578322 3.405129 45.121725
          -0.054894 0.409249 45.142214
          -1.578249 3.412825 45.129072
          -1.501294 0.878970 46.109077
          0.021054 0.422221 45.548698
          0.169294 -0.567884 44.842677
          -0.168587 -1.368815 43.764667
          -1.621946 -0.914793 44.340394
          -1.566761 -3.493274 45.128598
          -1.432021 -0.971364 46.107717
          -0.228793 -1.467680 46.482694
          -0.050638 -0.608270 45.479921
          -0.166762 -1.414080 43.819116
          -0.090546 -0.157908 44.977657
          -0.570152 -0.079369 44.819114
          -0.375425 -0.409035 44.989986
          -0.704973 -0.150457 45.269925
          -0.143718 -0.136312 45.591854
          -0.245162 -1.416781 46.547070
          -1.592810 -0.901482 44.295278
          -0.705814 -0.097580 45.041866
          -0.189981 -0.993553 44.136903
          -0.389954 -0.397926 45.055823
          0.114776 -0.731212 45.779278
          -0.945633 -0.130125 45.423811
          -1.324363 -0.987074 45.969869
          -1.569940 -0.033304 41.657169
          -0.405279 -0.049837 44.405697
          -0.489850 -0.050187 44.365103
          0.469720 -0.040832 45.230989
          -0.367559 -0.052732 45.596097
          -0.448839 -0.052573 45.636692
          -1.592138 -0.052695 48.582525
          -1.592809 0.801481 44.295278
          -0.705553 -0.002653 45.041942
          -0.189933 0.893521 44.136899
          -0.387301 0.287427 45.060469
          0.145801 0.588002 45.715131
          -0.945727 0.030163 45.423690
          -1.324368 0.886993 45.969949
          -0.166762 1.314077 43.819116
          -0.092105 0.052810 44.973443
          -0.570508 -0.019891 44.819808
          -0.354606 0.322155 44.989544
          -0.706168 0.048952 45.270522
          -0.148403 0.032548 45.588924
          -0.245163 1.316780 46.547070
          0.139905 0.460859 44.862806
          -0.168587 1.268817 43.764671
          -1.621946 0.814793 44.340394
          -1.591419 3.416701 45.126261
          -1.432083 0.871353 46.107763
          -0.228792 1.367680 46.482694
          -0.069775 0.474434 45.496448
[...]
      <PointData Scalars="density">
        <DataArray type="Float64" Name="density" format="ascii">
          1102.638940
          993.264611
          1021.125813
          988.268354
          988.819548
          959.752475
          888.910737
          1075.170673
          1029.775537
          955.894576
          974.780259
          960.188786
          1037.915204
          853.811606
          906.566184
          891.176673
          955.533316
          751.274360
          978.439475
          954.720401
          980.935186
          959.788728
          1120.248503
          719.366455
          918.828918
          755.770521
          1005.261674
          1003.927292
          907.935127
          901.097058
          961.677415
          751.233241
          985.063571
          955.009495
          981.355551
          1075.701406
          1030.131078
          955.674098
          975.117194
          984.796249
          1037.042976
          853.769482
          1103.188743
          993.006726
          1021.085058
          985.705013
          988.356433
          959.702019
          899.274085
          1061.942990
          981.245116
          585.198225
          998.262990
          585.075537
          951.615289
          1007.581485
          944.041504
          862.802418
          1038.699224
          966.185277
          989.250942
          816.983024
          981.831621
          584.871220
          999.925789
          993.569664
          565.120455
          978.286892
          975.555098
          585.874207
          1063.998682
          958.917292
          565.242674
          1004.791874
          565.925244
          1003.184119
          955.669998
          584.871220
          958.524943
          993.569690
          565.120454
          978.286884
          979.564549
          585.874207
          943.339017
          862.803918
          1038.155373
          965.292759
          996.095767
          816.932202
          984.832566
          1061.981754
          981.120120
          585.198224
          998.774965
          585.075535
          967.211176
          959.636344
          1015.856565
          976.748169
          1008.793521
          807.992431
          999.182675
          1024.774737
          971.729983
          1043.900551
          823.670068
          918.359719
          991.198301
          947.685797
          897.900822
          810.990585
          1061.348432
          950.960118
          1113.028863
          1054.818108
          1076.734892
          886.707143
          979.768445
          819.072534
          1050.896236
          1007.299069
          956.831333
          956.529565
          1051.531888
          822.525091
          1060.208554
          956.796184
          1066.333132
          1043.600117
          1071.454199
          859.632672
          961.206505
          1044.136326
          823.714735
          930.023789
          985.336724
          954.093514
          897.949375
          832.304946
          940.238590
          1004.886171
          1008.839041
          827.915785
          1003.720606
          1034.336291
          959.109406
          903.176582
          939.101681
          820.678752
          944.677840
          820.393397
          930.160908
          930.388592
          902.159691
          945.995729
          933.068868
          938.305578
          900.245925
          1151.913479
          807.013615
          820.464613
          959.301580
          826.451669
          1019.716587
          894.120196
          989.533466
          822.971357
          1011.699617
          1072.372191
          906.061426
          1025.677137
          909.904022
          1096.618470
          1016.773152
          804.086777
          959.293554
          826.481055
          1019.713031
          894.052467
          989.532589
          825.456139
          902.157297
          946.143665
          933.068754
          1103.057644
          900.246340
          957.423487
          807.043433
          885.502601
          939.101262
          828.669300
          940.276642
          828.626907
          930.212333
          982.568107
          1019.556924
          996.577936
          939.643784
          800.918890
          1064.665911
          967.729598
          1007.537872
          958.583376
          1089.668775
          841.035348
          945.374845
          919.457058
          945.754848
          979.993909
          928.338343
          990.109418
          989.620640
          981.699106
          994.911000
          917.967724
          851.621266
          794.795549
          931.012001
          909.535188
          1050.222509
          976.436073
          914.332372
          816.077303
          928.338194
          989.518361
          989.590398
          978.147633
          1068.299296
          916.210421
          851.752075
          958.581970
          1037.305102
          841.794868
          937.670124
          904.721765
          919.982789
          979.994096
          952.421918
          996.580336
          939.643772
          826.299446
          1064.535866
          967.728948
          1020.513297
          909.104406
          824.961655
          923.262171
          903.110670
          980.646401
          974.555327
          957.873289
          824.408389
          993.641418
          1009.620946
          1019.814793
          980.809553
          1016.449097
          973.315221
          979.370605
          987.006082
          837.138868
          908.882542
          951.837065
          963.842332
          1014.794968
          989.231364
          1177.423687
          1016.045876
          1062.768274
          995.957916
          994.466781
          1059.516166
          979.370559
          987.091031
          954.797333
          965.332348
          1066.529766
          1052.466435
          1014.794936
          824.480336
          993.488775
          1009.239576
          1014.871585
          1068.443642
          1003.411749
          973.381309
          975.386997
          824.939594
          923.264759
          903.111675
          980.645601
          974.593739
          914.458199
          934.641909
          1011.490560
          966.783327
          1050.509708
          1035.874467
          1000.620074
          937.931059
          950.022419
          1039.480502
          960.101200
          954.145479
          1008.041468
          1039.834319
          1001.861225
          1046.607180
          1026.811319
          1010.093675
          1046.355244
          867.377715
          992.021807
          950.690714
          1011.504299
          1020.898435
          832.680850
          898.741855
          1067.239695
          956.529413
          1163.326174
          1046.607122
          1026.805885
          1000.175243
          1077.414367
          866.276454
          992.022475
          950.690732
          950.037284
          956.396796
          960.099506
          954.145326
          1008.041142
          1066.817341
          978.770496
          898.018836
          1011.341022
          966.787081
          1050.509873
          1035.874846
          1148.248842
          941.020475
          941.040060
          1011.515895
          966.793278
          1050.509275
          1035.874996
          1106.578433
          947.181013
          950.105538
          1014.804425
          960.104180
          954.145084
          1008.041404
          1057.452558
          982.351608
          1046.605684
          1026.813892
          998.777451
          1060.520205
          887.770504
          992.021647
          950.691357
          1011.504688
          1020.901241
          839.506787
          899.344774
          1071.710588
          956.529107
          1163.327424
          1046.606198
          1026.806000
          1006.408489
          1077.723580
          848.449398
          992.022408
          950.691480
          950.092664
          980.675443
          960.099571
          954.145051
          1008.041112
          1030.852014
          1000.812092
          875.769556
          1011.574794
          966.790163
          1050.509692
          1035.874964
          1000.672925
          931.615254
          926.599990
          824.933065
          923.269145
          903.113485
          980.644155
          974.562101
          940.966921
          824.501610
          993.810529
          1009.258017
          995.931823
          991.262496
          1034.458645
          973.443270
          979.370869
          987.183293
          816.358770
          912.821203
          1067.483479
          983.007657
          1014.795373
          989.232276
          1177.238870
          1016.255031
          1062.578384
          1012.071731
          996.416189
          1059.516263
          979.370563
          986.885140
          947.112768
          852.210850
          958.735701
          1015.165846
          1014.795287
          824.470270
          993.828238
          1010.024396
          1021.354304
          993.976454
          906.328550
          973.395561
          891.142585
          824.942716
          923.266905
          903.112568
          980.645055
          974.575681
          979.498624
          1022.287148
          996.579118
          939.643764
          810.651712
          1064.332847
          967.729377
          1029.548314
          958.577620
          1054.006000
          840.969900
          950.641950
          907.381613
          919.985006
          979.993767
          928.338144
          990.652120
          989.555958
          979.713605
          991.874387
          916.861085
          851.879612
          822.374141
          931.005132
          909.637684
          1052.704096
          983.758179
          932.704377
          803.974839
          928.338221
          990.509098
          989.558917
          982.606621
          996.813675
          917.923172
          851.780250
          958.581749
          1065.398041
          841.710466
          922.532818
          918.853938
          946.063655
          979.993975
          981.484837
          996.580403
          939.643773
          828.324666
          1064.472761
          967.728735
          1005.905761
          895.894529
          939.101235
          823.288278
          948.474879
          822.869456
          930.262336
          978.951518
          902.157305
          946.140808
          933.068201
          969.904712
          900.245883
          960.143684
          807.043089
          822.444914
          959.301016
          826.489861
          1019.705793
          893.945380
          989.533966
          797.247650
          1011.830897
          1070.939360
          906.090189
          1027.810096
          909.903907
          1099.999679
          1014.049288
          804.372588
          959.293543
          826.476845
          1019.709163
          894.023776
          989.532904
          815.460217
          902.157374
          946.066521
          933.068697
          1057.823741
          900.246340
          1174.323418
          807.036307
          883.502931
          939.101278
          829.504194
          948.343346
          830.398651
          930.225031
          918.454483
          999.184754
          985.845189
          1008.910526
          824.618885
          1003.732806
          1032.207813
          959.760023
          1043.302183
          823.728266
          915.863474
          986.580343
          950.795452
          897.989079
          824.755971
          1060.524729
          947.112294
          1022.023850
          1041.220601
          1081.600513
          855.476340
          989.717705
          817.406999
          1050.963380
          1011.283418
          956.716758
          960.716859
          1051.400779
          818.854926
          1060.830153
          980.998738
          1094.783177
          1053.460180
          1066.448597
          885.499274
          955.510014
          1045.244092
          823.708386
          929.730447
          991.443137
          947.788589
          897.956717
          810.503661
          935.057654
          958.649581
          1008.469870
          827.011308
          999.258836
          1021.521461
          970.166465
          1061.888414
          981.406576
          585.198224
          1004.490445
          585.075535
          958.226074
          959.397640
          944.130326
          862.803845
          1038.238819
          961.808212
          995.599433
          816.808737
          983.578682
          584.871220
          1018.186029
          993.569852
          565.120454
          978.286832
          978.350710
          585.874207
          1063.999018
          958.923219
          565.242674
          1004.791875
          565.925244
          1003.112696
          957.744140
          584.871220
          962.977507
          993.569502
          565.120454
          978.286944
          977.191814
          585.874207
          943.215754
          862.803878
          1038.510985
          966.913539
          988.706433
          816.885390
          981.719337
          1061.819444
          981.283400
          585.198224
          993.075132
          585.075535
          958.210673
          970.654426
          1102.151585
          993.291104
          1021.198053
          986.774329
          988.523043
          959.889585
          896.559273
          1075.644293
          1030.317491
          955.457462
          975.271790
          968.864971
          1037.487151
          853.716807
          906.694277
          900.855948
          956.623161
          754.445141
          991.995504
          955.632728
          980.575215
          960.025754
          1120.425378
          722.446579
          921.815725
          755.884566
          999.075185
          1003.857183
          906.612916
          893.464538
          958.669991
          750.394949
          986.679652
          955.241937
          981.726166
          1075.975691
          1029.299754
          955.860422
          974.812128
          976.305645
          1037.378366
          853.869018
          1103.011343
          993.170455
          1021.183481
          988.075189
          988.704414
          959.721226
          887.474238
        </DataArray>
        <DataArray type="Float64" Name="pressure" format="ascii">
          12316.672832
          -808.246662
          2535.097571
          -1407.797555
          -1341.654265
          -4829.703059
          -13330.711563
          9020.480804
          3573.064464
          -5292.650919
          -3026.368884
          -4777.345734
          4549.824507
          -17542.607327
          -11212.057904
          -13058.799191
          -5336.002132
          -29847.076757
          -2587.262940
          -5433.551850
          -2287.777722
          -4825.352588
          14429.820348
          -33676.025382
          -9740.529867
          -29307.537470
          631.400901
          471.275006
          -11047.784809
          -11868.353064
          -4598.710238
          -29852.011103
          -1792.371455
          -5398.860643
          -2237.333899
          9084.168745
          3615.729374
          -5319.108284
          -2985.936725
          -1824.450143
          4445.157118
          -17547.662113
          12382.649180
          -839.192841
          2530.207000
          -1715.398397
          -1397.228009
          -4835.757707
          -12087.109809
          7433.158791
          -2250.586105
          -49776.213018
          -208.441147
          -49790.935597
          -5806.165370
          909.778141
          -6715.019548
          -16463.709875
          4643.906934
          -4057.766724
          -1289.887009
          -21962.037111
          -2180.205521
          -49815.453552
          -8.905371
          -771.640330
          -52185.545400
          -2605.572922
          -2933.388225
          -49695.095122
          7679.841889
          -4929.924970
          -52170.879114
          575.024932
          -52088.970726
          382.094261
          -5319.600192
          -49815.453563
          -4977.006785
          -771.637216
          -52185.545528
          -2605.573862
          -2452.254100
          -49695.095124
          -6799.317999
          -16463.529880
          4578.644787
          -4164.868949
          -468.508015
          -21968.135783
          -1820.092108
          7437.810446
          -2265.585656
          -49776.213131
          -147.004248
          -49790.935757
          -3934.658835
          -4843.638679
          1902.787826
          -2790.219708
          1055.222557
          -23040.908331
          -98.078964
          2972.968413
          -3392.402022
          5268.066151
          -21159.591825
          -9796.833696
          -1056.203937
          -6277.704387
          -12251.901355
          -22681.129749
          7361.811852
          -5884.785888
          13563.463543
          6578.172996
          9208.187000
          -13595.142862
          -2427.786590
          -21711.295963
          6107.548347
          875.888276
          -5180.240090
          -5216.452173
          6183.826526
          -21296.989061
          7225.026479
          -5184.457884
          7959.975877
          5232.014080
          8574.503888
          -16844.079375
          -4655.219428
          5296.359102
          -21154.231841
          -8397.145296
          -1759.593143
          -5508.778362
          -12246.074976
          -20123.406503
          -7171.369192
          586.340541
          1060.684956
          -20650.105772
          446.472756
          4120.354936
          -4906.871265
          -11618.810128
          -7307.798293
          -21518.549741
          -6638.659221
          -21552.792314
          -8380.691036
          -8353.369010
          -11740.837112
          -6480.512514
          -8031.735877
          -7403.330593
          -11970.488995
          18229.617509
          -23158.366214
          -21544.246448
          -4883.810359
          -20825.799697
          2365.990420
          -12705.576532
          -1255.984074
          -21243.437203
          1403.954009
          8684.662903
          -11272.628894
          3081.256412
          -10811.517334
          11594.216356
          2012.778289
          -23509.586733
          -4884.773508
          -20822.273443
          2365.563743
          -12713.703976
          -1256.089293
          -20945.263335
          -11741.124368
          -6462.760251
          -8031.749463
          12366.917235
          -11970.439248
          -5109.181601
          -23154.787983
          -13739.687909
          -7307.848617
          -20559.684036
          -7166.802965
          -20564.771220
          -8374.520093
          -2091.827180
          2346.830851
          -410.647684
          -7242.745944
          -23889.733146
          7759.909332
          -3872.448256
          904.544620
          -4969.994834
          10760.252949
          -19075.758282
          -6555.018653
          -9665.153078
          -6509.418184
          -2400.730913
          -8599.398844
          -1186.869842
          -1245.523255
          -2196.107242
          -610.679981
          -9843.873107
          -17805.448101
          -24624.534099
          -8278.559853
          -10855.777495
          6026.701022
          -2827.671197
          -10280.115359
          -22070.723605
          -8599.416733
          -1257.796657