<?xml version="1.0"?>
<VTKFile type="PolyData" version="0.1" byte_order="LittleEndian">
  <PolyData>
    <Piece NumberOfPoints="396" NumberOfVerts="396" NumberOfLines="0" NumberOfStrips="0" NumberOfPolys="0">
      <Points>
        <DataArray type="Float64" NumberOfComponents="3" format="ascii">
          0.136665 0.213316 6.418628
          -0.242754 -0.244067 6.269536
          0.058426 -0.250899 6.195948
          0.602446 0.899676 1.819392
          -0.313114 -0.551561 1.825238
          0.758798 0.564555 6.198312
          0.588228 0.831569 1.805490
          -0.305166 -1.055060 5.992663
          0.383398 0.057465 6.198658
          0.893250 -0.386705 1.814839
          -0.137458 -0.771499 1.824283
          -0.107125 -0.446674 6.488639
          -0.011001 1.263674 6.282922
          -0.481891 0.018874 6.240277
          -0.283562 -0.456628 1.825867
          -0.126207 1.427921 6.227585
          -0.456555 0.173291 6.505820
          1.236343 0.078899 1.798338
          -0.409207 -0.904453 6.102621
          -0.923026 0.503214 6.149330
          -0.583269 0.894474 1.868249
          -0.368070 -0.914805 6.067323
          0.175834 0.242046 6.559869
          1.204211 0.013809 1.796460
          0.093163 -0.597045 1.794893
          -0.048272 1.261424 6.304361
          0.406040 0.168224 6.028923
          0.033691 0.034373 1.807765
          -0.767436 0.789630 1.867932
          -0.176799 -0.280243 6.513468
          -0.052283 -0.298706 1.811880
          -0.379881 -0.087460 6.289872
          0.100452 -0.261564 6.249398
          0.245048 -0.623557 1.811683
          -0.577258 0.754178 1.821578
          0.638660 -0.827131 6.221536
          1.061471 -0.280062 1.808923
          -0.887772 0.426730 6.216364
          0.040244 -0.170579 6.483327
          -0.787824 0.487080 6.199105
          -0.482225 -1.144082 6.232319
          -0.460904 -1.055010 6.161556
          -1.166011 0.091385 1.814930
          -0.129336 -0.255714 6.565251
          0.617499 -1.155805 6.204211
          1.003397 -0.347489 1.811793
          0.005635 0.221229 6.571240
          -0.568036 -1.068712 6.293204
          -0.609141 -0.929457 6.149111
          0.825778 0.537768 6.188713
          -0.691064 0.933790 1.897765
          -1.008760 -0.168968 1.814830
          0.745852 0.090331 6.317507
          -0.635882 0.303209 5.884646
          -0.889631 0.158648 6.099464
          -0.082734 0.143258 6.497959
          -0.669509 -1.233428 6.156500
          -0.493237 0.633468 1.865022
          0.454391 0.216350 5.979415
          0.313452 0.053784 6.751362
          -1.099892 -0.186757 1.816756
          0.075554 -0.193735 6.155874
          0.173240 0.936789 6.293378
          1.096140 0.102690 1.815758
          -0.127855 -0.442406 6.466961
          -0.907610 0.550697 6.205861
          1.160142 0.028097 1.800640
          -0.500935 0.040894 6.390092
          -0.066803 -0.470027 6.481339
          -0.386356 -0.988239 6.234373
          -0.757462 0.445418 6.217365
          -0.130483 1.338246 6.199148
          5.311038 -0.418146 -0.038612
          0.216451 0.200315 6.333527
          0.994699 -0.406723 1.814830
          1.132159 0.063790 1.805186
          -1.139406 -0.005648 1.815285
          4.793034 -0.245037 5.949183
          0.160150 0.209408 6.252841
          -0.644136 0.078826 6.050549
          0.042385 0.200896 6.529841
          -0.840424 0.315552 6.067482
          -0.408631 0.709639 1.814830
          -0.893703 0.206579 6.122722
          0.277608 0.158868 6.127657
          0.296559 -0.567410 1.814830
          0.431930 -1.165901 6.264593
          0.163175 0.914143 6.222909
          0.165436 0.025847 6.720510
          -0.552457 0.838488 1.842288
          0.309171 0.897677 6.213086
          0.576661 1.018130 1.801241
          0.424456 0.759613 6.235249
          0.557337 -1.220891 6.278655
          0.074286 0.212075 6.515576
          -0.540818 -0.792495 6.173665
          0.236304 0.098822 6.138166
          -0.622576 -1.201903 6.140304
          -0.370504 0.042904 6.448587
          0.394883 -0.016212 6.304684
          0.316790 -0.591591 1.802646
          -0.640950 -0.985631 6.126675
          4.444881 0.325843 -0.046199
          -0.041956 1.502092 6.298497
          1.238311 -0.022797 1.815129
          0.993707 -0.349922 1.797190
          -0.510871 0.809378 1.923386
          4.651979 0.017215 5.943522
          0.146059 -0.370511 6.514880
          -0.672016 -1.053912 6.167418
          -0.793739 0.811985 1.824575
          -0.632329 -0.942370 6.182480
          -0.570319 0.084541 6.232997
          -0.607986 0.721613 1.814830
          -0.990641 0.004942 1.814751
          -0.299719 -0.405761 1.811229
          0.060388 -0.425829 6.495010
          -0.024951 -0.022264 1.809772
          0.039007 -0.353546 1.818983
          -0.645669 0.207400 6.244923
          -0.803299 0.181129 6.063595
          -0.249066 -0.196913 6.337680
          0.046172 -0.227302 6.561597
          -0.560982 0.111103 6.084290
          -0.577467 0.072200 6.219451
          0.049251 0.200932 6.330629
          -0.302479 -1.067281 6.220160
          -0.572068 0.126120 6.338300
          0.360222 -0.038028 6.594086
          -0.553879 -0.779653 6.087187
          -0.558717 -0.031619 6.299585
          0.014030 0.337366 6.355376
          -1.194232 -0.218595 1.812903
          -0.361581 0.749726 1.813588
          -0.306745 0.006628 1.814830
          0.299862 -0.750476 1.814830
          -0.738608 0.668252 1.807532
          -0.588133 0.142109 6.257971
          -0.355558 0.083295 6.477616
          -0.748696 0.440910 6.208367
          0.328774 -0.741155 1.843753
          -0.694048 0.617080 1.816007
          -0.569330 -0.897962 6.023715
          0.242737 -0.731268 1.808024
          5.378422 -0.295724 -0.062802
          -0.203932 -0.668092 1.814220
          -0.720304 -1.134620 6.209557
          0.010032 -0.640748 1.818423
          0.644173 -0.084425 6.296753
          4.727504 0.293334 5.944478
          0.269952 0.745111 6.177283
          1.139239 0.117533 1.801141
          0.437347 0.085148 6.532705
          -0.625101 -1.144294 6.105679
          0.733831 0.419480 6.242624
          0.537417 0.954096 1.817840
          -0.336217 -0.029747 6.277131
          -0.294843 -0.126412 1.808989
          -0.202475 1.435148 6.201956
          0.147597 0.003031 6.505093
          -0.290807 0.077726 1.811118
          -0.770313 -1.098918 6.178975
          -0.698345 0.931722 1.824642
          -0.045935 1.380647 6.107444
          0.732938 -1.027772 6.207459
          0.093497 -0.022014 6.555334
          -0.318227 -0.097640 1.810353
          0.426320 0.863544 6.119857
          -0.951693 0.242811 6.061090
          0.908518 -0.086413 1.811833
          0.388645 0.051135 6.610833
          0.252835 0.960030 6.249365
          0.749549 -1.117442 6.278482
          -0.119487 -0.750740 1.821095
          4.447817 0.311163 -0.060262
          -0.422912 0.887151 1.814830
          0.344430 0.846036 6.149564
          -0.409462 0.717451 1.821223
          0.505948 -0.937208 6.198392
          4.604798 0.011352 5.948632
          0.261460 0.467567 3.637841
          0.366525 0.116877 6.616985
          0.234980 -0.129599 6.148976
          -0.323471 -0.012168 1.799563
          0.144729 0.266022 6.618768
          0.420781 0.816937 6.175643
          -0.000000 -3.678114 4.735256
          -0.045601 -0.294903 1.824976
          0.085968 0.266608 6.184994
          0.098100 0.040000 1.800645
          0.558269 -1.068904 6.226482
          0.389626 0.127649 5.363836
          -0.054724 1.305976 6.360431
          0.317592 0.158354 6.533270
          -0.223063 -0.153143 6.445137
          0.321626 0.842083 6.103502
          0.128243 -0.469617 1.798782
          0.251320 0.931633 6.269308
          0.799582 -1.080377 6.332283
          -0.356563 -0.054976 1.814830
          0.045121 -0.154785 6.434845
          -0.295680 -0.516591 1.811075
          0.378216 0.830963 1.804338
          -0.240900 -0.943028 6.027267
          0.000000 3.678114 4.735257
          -0.691657 0.708000 1.871862
          0.266464 -0.205224 6.355078
          -0.281761 -0.022382 1.814830
          0.229019 0.734730 6.133289
          0.290922 0.470019 5.764106
          -0.022341 -0.290416 3.536221
          0.034506 -0.210448 6.444949
          -0.355012 -0.024680 1.814667
          0.098853 -0.113363 1.796081
          0.040966 0.111451 1.803211
          -0.398442 -1.182789 6.359287
          -4.475573 -0.101091 -0.051601
          -0.082759 -0.707334 1.820249
          -0.370827 -1.019053 6.047756
          0.459654 -0.730861 1.834246
          -0.878165 0.169319 6.114673
          -4.461268 -0.039629 5.964318
          0.047630 1.245703 6.258127
          -1.088007 0.124751 1.798429
          -0.259712 0.052036 6.450342
          0.776961 -1.171678 6.219921
          -0.746803 0.209099 6.094043
          -0.765017 0.864235 1.846684
          -0.013440 0.063551 1.809639
          0.087155 -0.069416 1.801810
          -0.127047 1.445046 6.302159
          -0.309343 0.280386 6.552429
          0.060313 -0.041696 1.814581
          -0.275024 -1.042261 6.027291
          0.353893 0.878418 1.817534
          0.192752 -0.113558 6.238049
          -0.403650 -0.928768 6.017227
          -0.317276 0.025614 6.377624
          0.103517 0.004043 1.814830
          -0.113902 1.421087 6.189371
          -0.677679 -0.021033 6.087392
          -1.178808 0.082664 1.815625
          -0.222269 0.186992 6.528415
          -0.008162 1.408430 6.281183
          -0.324673 -1.113698 6.014204
          -0.027101 -0.729876 1.815415
          -4.459627 0.040745 -0.047711
          0.394110 0.805506 1.829025
          -0.060741 1.421813 6.181790
          0.302269 0.819078 1.818179
          -0.591990 -0.973646 6.030732
          -4.437707 0.068475 5.960315
          0.043236 -0.401345 6.499975
          0.622948 -0.847572 6.230031
          0.658551 1.038271 1.738226
          0.466685 0.143475 5.959021
          0.919406 -0.271258 1.804602
          0.331784 0.836699 1.814830
          1.216253 -0.104645 1.815357
          -0.203695 -0.442460 1.806908
          0.046781 0.115854 1.815865
          0.602820 1.006527 1.815764
          0.320262 -0.711671 1.808950
          0.655516 -0.092476 6.256621
          0.740857 0.466916 6.245508
          -0.217286 -0.213202 6.392576
          -0.272496 0.200729 6.555346
          0.601334 0.281875 6.206325
          0.172454 -0.022110 6.022092
          -0.272331 -0.187676 6.244932
          0.514144 -0.867375 6.139208
          -0.649160 0.189240 6.143718
          0.410854 0.134655 6.542528
          0.604106 -0.880991 6.214948
          0.436366 0.037154 6.041852
          0.085625 0.223383 6.289506
          1.000060 -0.318655 1.811463
          0.422977 0.808105 1.829089
          0.067794 -0.019395 1.803476
          -0.384004 -0.122324 1.801138
          0.649224 0.990611 1.820173
          0.667875 0.091448 6.216328
          -0.384772 0.136621 6.558576
          0.777701 0.533428 6.195750
          1.207417 -0.107128 1.805178
          0.716623 0.566685 6.200139
          0.673823 -0.006358 6.244528
          0.278653 -0.590396 1.816679
          -4.573664 -0.013284 -0.051610
          0.566755 -1.186109 6.288751
          -1.146662 -0.253554 1.816054
          -1.216662 0.072891 1.799455
          1.024074 -0.070670 1.815924
          -4.486397 -0.059457 5.965354
          0.514485 0.253226 6.292432
          0.658064 0.495500 6.245997
          0.184522 0.213649 6.656490
          0.758426 0.070207 6.268052
          0.653670 0.906256 1.811836
          0.516172 0.000365 6.089721
          0.088092 -0.248032 6.204614
          -0.206346 -0.416583 1.823840
          -0.701951 -1.200412 6.087278
          -0.932697 0.324289 6.124215
          -0.331759 0.249231 6.520047
          0.692337 0.985894 1.802298
          0.401711 -0.109188 6.242361
          -0.525233 0.889594 1.817659
          0.345512 0.759890 6.122706
          -0.537911 -1.103372 6.253790
          -0.280172 0.078799 6.439729
          0.846806 -1.121559 6.258951
          0.456428 0.138332 6.044160
          0.492566 -0.900986 6.251926
          0.300628 0.002641 6.614953
          0.500436 0.175199 6.079744
          0.994305 -0.205923 1.815976
          0.626534 -0.824129 6.225388
          -4.427864 0.053453 -0.053621
          0.260088 0.899835 6.272647
          -1.000937 0.047191 1.801353
          -1.147772 -0.243580 1.809043
          1.201211 0.056207 1.798059
          -4.479899 0.050788 5.964114
          -1.116197 -0.247574 1.814831
          0.731238 0.192745 6.279156
          0.413463 0.066652 6.625387
          0.596928 0.504694 6.141821
          0.592651 -0.872151 6.153629
          -0.132269 0.166486 6.317654
          0.947174 -0.380810 1.799095
          -0.079627 1.131749 6.292514
          -0.456216 -0.911388 6.221938
          -1.140993 -0.278420 1.802225
          -0.262095 -0.184106 6.266305
          0.445749 -1.121644 6.321838
          0.396388 -1.059327 6.207960
          -0.428856 -0.901924 5.937591
          0.667473 0.525068 6.226560
          -0.048350 -0.624820 1.818155
          -0.004832 0.213447 6.281833
          0.540599 0.039592 6.252828
          0.564470 0.245026 6.289585
          -1.078333 0.104439 1.815020
          0.556987 -0.846835 6.212344
          0.084274 -0.436226 6.464352
          -0.897755 0.479599 6.105011
          0.711812 -0.083102 6.224914
          0.908102 -0.307712 1.806867
          0.265504 -0.111463 6.285683
          -0.077124 1.215848 6.306493
          -1.190701 -0.302223 1.812703
          -0.351078 0.231793 6.539059
          0.542296 0.259001 6.235575
          -1.059113 0.113250 1.814431
          0.715062 -0.055447 6.281154
          -0.077747 -0.335442 6.518773
          0.718503 -0.872539 6.265509
          0.538701 0.347314 6.211095
          0.213978 0.876996 6.103517
          0.192110 0.170529 6.366389
          0.010565 -0.194210 6.202376
          -0.751537 0.300019 6.017528
          -0.436387 0.673216 1.816768
          -0.109946 -0.694052 1.817118
          -0.943018 0.503272 6.184736
          -0.361561 0.678437 1.828594
          0.659336 -1.181026 6.228728
          0.338771 0.158249 6.216746
          -1.125042 -0.086477 1.817099
          0.328000 -0.615805 1.814830
          -0.351637 0.303230 6.532206
          0.252396 0.810319 6.068421
          0.742010 0.512157 6.195284
          -0.093603 -0.695507 1.815937
          0.136997 0.958616 6.206003
          0.290387 0.052449 6.565712
          -1.131836 -0.267377 1.815935
          0.848466 -1.116203 6.198956
          0.548510 -1.120598 6.256896
          0.254140 0.889987 1.818086
          0.832461 -0.907386 6.222576
          0.442364 0.036965 6.536613
          -1.100104 -0.321005 1.810439
          -0.198005 -0.371476 1.824870
          -0.035736 1.242147 6.240229
          -0.897602 0.467707 6.297935
          -0.386991 -0.074539 1.810175
          0.527487 0.970903 1.813231
          -0.006559 0.068719 6.539346
          0.227212 -0.102197 6.221156
          -0.061460 -0.161443 6.232028
          -0.090868 -0.330839 6.371571
          -0.068775 -0.483325 1.796706
          0.375497 0.821380 1.820568
          -0.758960 -0.999568 6.263320
        </DataArray>
      </Points>
      <PointData Scalars="density">
        <DataArray type="Float64" Name="density" format="ascii">
          1202.827939
          795.870044
          878.190745
          998.495627
          746.679083
          832.211529
          923.462983
          797.068384
          1193.347882
          747.106565
          771.232743
          839.970839
          982.712334
          937.633829
          768.646513
          984.459627
          939.235479
          804.405194
          1211.010046
          808.287199
          1012.028756
          1059.388824
          1055.529680
          892.971961
          995.603844
          1007.245582
          875.441329
          944.887195
          865.701329
          903.006250
          709.650929
          946.902312
          965.366461
          927.736041
          1199.591268
          959.722958
          900.219085
          951.681065
          1022.744871
          861.323004
          995.381971
          1365.916410
          863.845553
          864.053300
          1024.879955
          882.895513
          908.907572
          1050.037851
          1211.692011
          709.713613
          719.109848
          965.352975
          763.086864
          500.000000
          816.022942
          1048.924470
          778.314553
          843.190136
          676.334644
          674.483253
          1096.615662
          810.404444
          827.744297
          728.797345
          814.119562
          706.936010
          928.104290
          1020.613929
          781.411342
          1081.139365
          799.386169
          1034.887859
          500.000000
          1118.036195
          761.723877
          881.887113
          1034.616740
          500.000000
          974.334749
          809.156379
          1095.061246
          1086.223070
          846.688806
          884.962883
          1012.692650
          853.332684
          722.300814
          877.187771
          732.177028
          1106.977550
          1140.775499
          907.130577
          786.431619
          766.043236
          1110.479144
          697.005642
          1016.610568
          963.342957
          1161.777831
          1051.473836
          803.892993
          1221.952602
          500.000000
          795.813234
          852.095706
          887.495179
          1003.696394
          500.000000
          725.163294
          1209.469591
          792.934422
          1165.805749
          987.506417
          1107.961291
          861.878217
          721.196503
          798.163077
          990.477418
          642.734653
          897.351565
          951.483649
          981.783629
          898.447140
          813.883154
          977.717388
          1037.020593
          755.354593
          915.552603
          913.524394
          684.231965
          818.637229
          721.120091
          1005.434992
          776.976871
          857.476119
          759.295278
          675.096190
          953.065537
          1163.018912
          876.517649
          730.161604
          695.091903
          982.288154
          838.970738
          500.000000
          926.669983
          955.687155
          1042.562362
          751.570730
          500.000000
          939.609338
          799.405664
          939.336584
          1106.735436
          925.383155
          1028.752346
          971.893949
          902.852455
          788.718414
          1123.768488
          739.278275
          859.021003
          803.080176
          810.151664
          1067.107979
          988.965367
          906.217171
          823.221008
          735.927701
          642.952080
          1026.673989
          977.051362
          995.506873
          864.703985
          500.000000
          715.436083
          1103.441288
          880.816679
          1079.291985
          500.000000
          500.000000
          1056.207944
          889.157031
          899.499111
          828.992501
          813.398103
          500.000000
          704.594628
          688.439537
          894.476080
          1203.723974
          500.000000
          944.897357
          1144.488021
          995.094832
          1018.094416
          808.535945
          976.072942
          773.214960
          882.918457
          1100.380147
          771.645396
          901.012149
          645.714687
          500.000000
          966.362983
          783.241484
          905.024264
          979.371320
          500.000000
          500.000000
          1167.658621
          884.488944
          811.482266
          840.713832
          500.000000
          500.000000
          932.765843
          1139.106275
          561.196972
          873.809675
          500.000000
          860.720814
          830.657046
          1129.529872
          790.269866
          1101.702443
          744.719513
          905.979079
          897.032146
          948.631063
          791.169219
          953.217788
          798.291580
          906.216763
          1043.731746
          1113.604460
          1160.006100
          890.134048
          968.894874
          601.178817
          809.546160
          1039.681315
          972.144052
          747.935170
          946.996640
          500.000000
          899.272861
          959.515519
          737.338397
          1114.842894
          500.000000
          909.331440
          982.306744
          676.795300
          665.779747
          868.726796
          859.762420
          825.041453
          971.934311
          777.657554
          904.104835
          840.162159
          782.496451
          929.814279
          1018.389502
          1012.065640
          1012.328612
          633.768634
          777.321150
          866.903787
          1022.727473
          981.163660
          1049.383124
          956.160954
          965.311997
          931.323821
          926.151352
          945.607988
          804.321550
          892.287503
          1035.894624
          996.471378
          824.965752
          794.848561
          832.008188
          940.902582
          879.947964
          500.000000
          913.022785
          988.690997
          795.901582
          873.722355
          500.000000
          935.393501
          916.895258
          897.083877
          745.235363
          819.816264
          974.342606
          897.807799
          896.910773
          752.671986
          1030.658265
          930.726866
          769.466674
          867.004192
          989.032921
          854.612999
          1167.910055
          1165.082576
          682.467161
          927.771237
          959.884585
          1066.949640
          1003.550909
          950.760649
          961.721476
          500.000000
          985.872334
          797.825849
          1013.525127
          863.334633
          500.000000
          1015.921335
          778.144631
          888.808230
          753.392482
          971.164280
          735.683683
          864.638092
          615.079554
          1156.060443
          948.329234
          817.006942
          755.705320
          684.226689
          781.550533
          900.890710
          1104.454795
          846.464953
          1135.854945
          949.445862
          831.970412
          970.037844
          782.298249
          844.836047
          713.904535
          860.372581
          989.794290
          898.662903
          817.568813
          942.814952
          990.780565
          802.994324
          748.490296
          1054.289543
          934.544406
          899.369858
          1044.083458
          1192.542406
          888.937948
          911.300524
          897.125633
          1004.681606
          766.928191
          686.873026
          972.436161
          1106.018308
          1156.019408
          837.153414
          771.121700
          901.014111
          857.042692
          975.657622
          844.166122
          1231.347664
          956.852693
          666.996127
          1055.153784
          632.470900
          620.381225
          895.920418
          805.583701
          842.315057
          967.614910
          659.054129
          864.562854
          1037.088951
          991.943509
          1032.266787
          911.369898
          1136.217127
          1041.083430
          898.948186
          732.317792
        </DataArray>
        <DataArray type="Float64" Name="pressure" format="ascii">
          6084.838168
          -6123.898685
          -3654.277665
          -45.131188
          -7599.627506
          -5033.654143
          -2296.110508
          -6087.948483
          5800.436449
          -7586.803054
          -6863.017696
          -4800.874827
          -518.629972
          -1870.985142
          -6940.604612
          -466.211186
          -1822.935618
          -5867.844192
          6330.301365
          -5751.384023
          360.862684
          1781.664706
          1665.890393
          -3210.841185
          -131.884684
          217.367464
          -3736.760143
          -1653.384135
          -4028.960141
          -2909.812502
          -8710.472128
          -1592.930628
          -1039.006158
          -2167.918779
          5987.738050
          -1208.311269
          -2993.427461
          -1449.568054
          682.346129
          -4160.309884
          -138.540878
          10977.492295
          -4084.633416
          -4078.400999
          746.398649
          -3513.134603
          -2732.772827
          1501.135524
          6350.760335
          -8708.591622
          -8426.704557
          -1039.410740
          -7107.394075
          -15000.000000
          -5519.311748
          1467.734107
          -6650.563424
          -4704.295929
          -9709.960681
          -9765.502398
          2898.469861
          -5687.866677
          -5167.671082
          -8136.079642
          -5576.413155
          -8791.919706
          -2156.871299
          618.417855
          -6557.659745
          2434.180951
          -6018.414937
          1046.635771
          -15000.000000
          3541.085863
          -7148.283691
          -3543.386624
          1038.502192
          -15000.000000
          -769.957534
          -5725.308621
          2851.837367
          2586.692106
          -4599.335814
          -3451.113503
          380.779493
          -4400.019475
          -8330.975570
          -3684.366868
          -8034.689170
          3209.326512
          4223.264965
          -2786.082686
          -6407.051431
          -7018.702925
          3314.374327
          -9089.830741
          498.317055
          -1099.711293
          4853.334928
          1544.215075
          -5883.210211
          6658.578074
          -15000.000000
          -6125.602977
          -4437.128809
          -3375.144642
          110.891823
          -15000.000000
          -8245.101181
          6284.087730
          -6211.967351
          4974.172478
          -374.807501
          3238.838739
          -4143.653489
          -8364.104907
          -6055.107685
          -285.677449
          -10717.960423
          -3079.453048
          -1455.490536
          -546.491120
          -3046.585813
          -5583.505391
          -668.478354
          1110.617800
          -7339.362210
          -2533.421918
          -2594.268179
          -9473.041042
          -5440.883118
          -8366.397281
          163.049773
          -6690.693881
          -4275.716444
          -7221.141649
          -9747.114310
          -1408.033885
          4890.567353
          -3704.470523
          -8095.151888
          -9147.242900
          -531.355373
          -4830.877847
          -15000.000000
          -2199.900506
          -1329.385347
          1276.870867
          -7452.878114
          -15000.000000
          -1811.719859
          -6017.830088
          -1819.902487
          3202.063090
          -2238.505349
          862.570392
          -843.181543
          -2914.426359
          -6338.447592
          3713.054639
          -7821.651754
          -4229.369905
          -5907.594722
          -5695.450074
          2013.239374
          -331.038980
          -2813.484871
          -5303.369761
          -7922.168958
          -10711.437597
          800.219675
          -688.459146
          -134.793824
          -4058.880455
          -15000.000000
          -8536.917523
          3103.238654
          -3575.499621
          2378.759555
          -15000.000000
          -15000.000000
          1686.238327
          -3325.289058
          -3015.026663
          -5130.224961
          -5598.056897
          -15000.000000
          -8862.161160
          -9346.813893
          -3165.717589
          6111.719218
          -15000.000000
          -1653.079300
          4334.640640
          -147.155042
          542.832469
          -5743.921660
          -717.811728
          -6803.551190
          -3512.446285
          3011.404403
          -6850.638124
          -2969.635532
          -10628.559383
          -15000.000000
          -1009.110518
          -6502.755474
          -2849.272091
          -618.860414
          -15000.000000
          -15000.000000
          5029.758631
          -3465.331686
          -5655.532014
          -4778.585035
          -15000.000000
          -15000.000000
          -2017.024701
          4173.188244
          -13164.090837
          -3785.709763
          -15000.000000
          -4178.375569
          -5080.288613
          3885.896175
          -6291.904014
          3051.073282
          -7658.414604
          -2820.627645
          -3089.035626
          -1541.068118
          -6264.923435
          -1403.466348
          -6051.252592
          -2813.497115
          1311.952379
          3408.133804
          4800.182997
          -3295.978563
          -933.153770
          -11964.635492
          -5713.615192
          1190.439442
          -835.678435
          -7561.944903
          -1590.100805
          -15000.000000
          -3021.814182
          -1214.534426
          -7879.848085
          3445.286811
          -15000.000000
          -2720.056797
          -530.797685
          -9696.140997
          -10026.607586
          -3938.196116
          -4207.127398
          -5248.756410
          -841.970659
          -6670.273386
          -2876.854960
          -4795.135227
          -6525.106482
          -2105.571630