<?xml version="1.0"?>
<VTKFile type="PolyData" version="0.1" byte_order="LittleEndian">
  <PolyData>
    <Piece NumberOfPoints="686" NumberOfVerts="686" NumberOfLines="0" NumberOfStrips="0" NumberOfPolys="0">
      <Points>
        <DataArray type="Float64" NumberOfComponents="3" format="ascii">
          -3.280308 -1.679827 0.000000
          -2.775976 3.174464 0.000000
          1.662502 3.847251 0.000000
          -2.265822 -3.979606 0.000000
          -1.045051 -2.600324 0.000000
          -1.595982 -1.244152 0.000000
          -1.903667 3.763647 0.000000
          -3.457677 -1.752533 0.000000
          -1.200377 2.911987 0.000000
          -5.648475 -3.518919 0.000000
          -5.727648 -3.247553 0.000000
          -1.265784 2.848785 0.000000
          -1.545253 0.834315 1.847269
          -2.528017 0.987299 0.000000
          -3.297563 -1.626059 0.000000
          -3.301838 0.893489 0.000000
          5.247289 -3.226464 0.000000
          -5.648474 -3.518919 0.000000
          -4.663521 -0.419702 0.000000
          -5.861872 -3.198249 0.000000
          -2.469364 0.710426 0.000000
          -4.307431 -0.850537 0.000000
          -1.563142 2.670407 0.000000
          -1.552758 0.820069 1.853818
          0.613107 -3.110345 0.000000
          -3.469722 -1.617650 0.000000
          -5.311293 -2.086248 0.000000
          -5.648473 -3.518917 0.000000
          -3.494806 -1.714300 0.000000
          -5.686411 -2.965042 0.000000
          -4.897489 -1.357049 0.000000
          -3.284563 -1.698604 0.000000
          1.611639 3.063601 0.000000
          -4.600539 2.456118 0.000000
          -2.517068 0.986783 0.000000
          -4.342244 -0.869966 0.000000
          -1.372020 2.943770 0.000000
          -5.762102 3.698461 0.000000
          -4.341428 -0.830986 0.000000
          -2.973615 3.314386 0.000000
          -1.556254 0.823557 1.850000
          -2.431473 0.757249 0.000000
          -3.477911 -1.737729 0.000000
          -3.670783 2.514991 0.000000
          -2.860292 3.129721 0.000000
          -4.857868 -1.360578 0.000000
          -3.715513 2.522967 0.000000
          1.709054 2.878688 0.000000
          -1.870304 3.608998 0.000000
          -0.178022 -2.519434 0.000000
          -5.884396 -3.284563 0.000000
          -5.328823 -2.585549 0.000000
          -4.664828 -0.424964 0.000000
          -5.320562 -2.599655 0.000000
          -2.099416 3.596043 0.000000
          0.060660 -1.225505 0.000000
          -2.764134 3.193277 0.000000
          -4.396164 -2.253970 0.000000
          -2.077600 -3.882018 0.000000
          5.135490 -2.740274 0.000000
          -1.598807 -1.249898 0.000000
          -3.995087 -2.384472 0.000000
          -5.798557 3.804797 0.000000
          -5.240576 0.004293 0.000000
          -0.769087 -1.727328 0.000000
          -2.382854 -0.016954 0.000000
          -5.314395 -2.577866 0.000000
          -2.405145 -0.096805 0.000000
          -5.405857 -2.020860 0.000000
          -5.252484 0.004294 0.000000
          -2.771802 3.294453 0.000000
          3.892204 -1.202337 0.000000
          -5.299561 -0.049998 0.000000
          -2.364361 -0.048652 0.000000
          -5.193504 -0.050000 0.000000
          -5.402200 -2.000254 0.000000
          5.201550 -3.127308 0.000000
          -5.240587 -0.104294 0.000000
          -0.048477 1.040969 0.000000
          -2.373578 -0.074096 0.000000
          -5.062847 2.118934 0.000000
          -2.392574 -0.011013 0.000000
          -3.017576 3.253575 0.000000
          -5.252483 -0.104293 0.000000
          4.487565 2.378120 0.000000
          -4.454623 2.154545 0.000000
          -1.015373 -2.533414 0.000000
          -1.734601 2.428795 0.000000
          2.370544 -3.501324 0.000000
          -4.005873 2.459592 0.000000
          -1.734605 2.428795 0.000000
          -0.018003 2.237472 0.000000
          -1.011208 -1.796468 0.000000
          -4.544271 1.484727 0.000000
          0.609643 -3.114853 0.000000
          -4.253243 3.976806 0.000000
          0.991030 3.360352 0.000000
          -0.454502 1.215956 0.000000
          -4.453853 2.255496 0.000000
          1.668531 3.057595 0.000000
          3.857422 -1.279343 0.000000
          -3.731965 -1.360797 0.000000
          -1.565417 0.840456 1.854864
          -1.120424 -2.544672 0.000000
          -4.584971 -0.484604 0.000000
          1.577015 3.913880 0.000000
          -4.709087 -3.348858 0.000000
          -5.686411 -2.965042 0.000000
          -5.768933 3.689570 0.000000
          5.284898 -3.084620 0.000000
          -3.976470 -2.555069 0.000000
          -4.775132 -2.557583 0.000000
          -1.892893 3.767717 0.000000
          0.831705 -1.608188 0.000000
          -3.288257 0.979462 0.000000
          2.789354 -1.629149 0.000000
          0.524698 -3.111545 0.000000
          -0.363206 -1.265047 0.000000
          -2.141715 -3.873582 0.000000
          -3.419876 -0.054197 0.000000
          -3.316722 -1.740399 0.000000
          -1.789380 3.740049 0.000000
          -4.343051 -0.869437 0.000000
          -2.349836 -3.948258 0.000000
          -2.488527 0.958374 0.000000
          -4.124053 -0.053426 0.000000
          -3.474322 -1.621889 0.000000
          -0.264597 1.031712 0.000000
          -2.077708 -3.882300 0.000000
          -1.878295 3.605455 0.000000
          -1.602213 -1.246493 0.000000
          -0.462071 1.168569 0.000000
          -3.674214 2.505279 0.000000
          3.890295 -1.188410 0.000000
          -4.288009 2.964552 0.000000
          -4.628118 -0.386036 0.000000
          -2.855476 3.349259 0.000000
          -5.281533 -1.976189 0.000000
          -3.890857 2.286242 0.000000
          -4.602666 2.449308 0.000000
          4.897242 3.899714 0.000000
          2.759231 -1.596678 0.000000
          4.812587 2.160256 0.000000
          -3.738282 0.855750 0.000000
          -5.648473 -3.518919 0.000000
          -4.458194 2.429347 0.000000
          -3.010541 3.181263 0.000000
          -0.706976 -1.771453 0.000000
          -4.383283 -2.277449 0.000000
          -3.736948 -1.368641 0.000000
          -1.052536 -1.758841 0.000000
          -3.737558 -1.363795 0.000000
          -4.033765 -2.414300 0.000000
          0.184050 -1.322289 0.000000
          -4.426570 -2.283893 0.000000
          0.423664 -2.449211 0.000000
          -0.375446 -3.723689 0.000000
          -5.747489 -3.195103 0.000000
          -0.644284 -3.915498 0.000000
          0.324576 -1.432727 0.000000
          -4.042513 -2.507955 0.000000
          -3.415590 -0.049252 0.000000
          -0.301539 -3.609862 0.000000
          -4.709481 -3.354676 0.000000
          -0.131755 -3.897357 0.000000
          -3.862499 -2.467589 0.000000
          -0.729411 -3.847265 0.000000
          -4.119794 -0.058414 0.000000
          -5.890988 3.750248 0.000000
          -5.686411 -2.965042 0.000000
          -3.960673 3.958674 0.000000
          -5.405149 -2.011598 0.000000
          -2.905486 -1.340451 0.000000
          -5.822298 -3.172475 0.000000
          -2.083912 3.571758 0.000000
          -3.418708 -0.045803 0.000000
          -0.298666 3.538528 0.000000
          -4.279746 2.966678 0.000000
          0.173681 3.820797 0.000000
          -4.032808 2.440627 0.000000
          -0.728805 3.746863 0.000000
          -4.123441 -0.061271 0.000000
          -4.388382 2.122767 0.000000
          0.128821 2.373066 0.000000
          -0.267401 3.478420 0.000000
          1.583116 2.952801 0.000000
          -0.638941 3.809306 0.000000
          -0.347655 1.355653 0.000000
          -3.890868 2.286231 0.000000
          -0.038311 1.067690 0.000000
          -4.372003 2.132888 0.000000
          -3.730630 0.849798 0.000000
          -1.453204 2.586086 0.000000
          -3.732608 0.855031 0.000000
          -4.005935 2.459575 0.000000
          -0.462506 1.169880 0.000000
          0.790562 -1.509436 0.000000
          0.302794 -3.641964 0.000000
          -4.424225 -2.261115 0.000000
          -3.731355 -1.365643 0.000000
          -4.026415 -2.529842 0.000000
          -0.730698 -3.912818 0.000000
          0.166303 -1.312232 0.000000
          -0.279624 -3.662864 0.000000
          4.441169 2.392616 0.000000
          -2.348151 -3.942895 0.000000
          -4.604567 2.433723 0.000000
          -1.599388 -1.240748 0.000000
          2.375273 -3.497476 0.000000
          -0.638042 -3.905978 0.000000
          -4.398998 -2.296198 0.000000
          -3.008540 3.178205 0.000000
          -0.210525 -2.382345 0.000000
          -0.915142 -1.807572 0.000000
          0.032052 -1.387623 0.000000
          -4.828216 -1.276161 0.000000
          -3.863102 -2.456402 0.000000
          -3.422993 -0.050748 0.000000
          -1.581621 2.654961 0.000000
          -5.890747 3.752271 0.000000
          4.492934 2.488846 0.000000
          -5.671784 -3.006028 0.000000
          -1.734605 2.428792 0.000000
          -4.127700 -0.056282 0.000000
          -4.380900 2.229320 0.000000
          -2.986292 3.155500 0.000000
          -0.117295 2.189402 0.000000
          -4.510816 2.329538 0.000000
          0.732773 1.205329 0.000000
          -1.669036 2.473577 0.000000
          -3.880379 2.300413 0.000000
          -0.213126 3.571103 0.000000
          -1.374046 2.925806 0.000000
          0.692516 3.130690 0.000000
          -2.585186 -0.105330 0.000000
          -4.316539 -0.832374 0.000000
          -2.078130 3.666230 0.000000
          -0.641918 3.813559 0.000000
          -0.150299 1.421037 0.000000
          0.189587 3.484568 0.000000
          -4.379657 2.126892 0.000000
          -3.736304 0.850516 0.000000
          -3.890858 2.286241 0.000000
          -0.731217 3.811720 0.000000
          -0.312696 1.429445 0.000000
          -5.879019 -3.297054 0.000000
          -4.704447 -3.352096 0.000000
          -0.287843 -3.962910 0.000000
          0.248460 -3.747092 0.000000
          -0.336853 -3.855083 0.000000
          -3.941918 -2.378286 0.000000
          0.610356 -3.048555 0.000000
[...]
      <PointData Scalars="density">
        <DataArray type="Float64" Name="density" format="ascii">
          1000.000000
          1000.000000
          1000.000000
          994.941259
          1000.000000
          831.106501
          1000.000000
          1000.000000
          1000.000000
          999.916272
          999.996923
          1000.000000
          1012.607273
          1000.000000
          1000.000000
          1000.000000
          1000.000000
          999.915723
          1000.000000
          1000.002631
          1000.000000
          1000.000000
          999.999293
          1002.893098
          1000.000000
          1000.000000
          1000.000000
          999.918956
          1000.000000
          999.998787
          1000.000000
          1000.000000
          999.999672
          1000.000000
          1000.000000
          1000.000000
          1000.000000
          1000.000000
          1000.000000
          1000.000000
          980.368347
          1000.000000
          1000.000000
          1000.000000
          1000.000000
          1000.000000
          1000.000000
          999.999264
          1000.000000
          1000.000000
          1000.003374
          617.881318
          1000.000000
          619.238984
          1000.000000
          1000.000000
          1000.000000
          1000.000000
          986.577901
          1000.000000
          831.422489
          1000.000000
          1000.000000
          1000.000000
          1000.000000
          1000.000000
          619.238984
          1000.000000
          1000.000000
          1000.000000
          1000.000000
          1000.000000
          1000.000000
          1000.000000
          1000.000000
          1000.000000
          1000.000000
          1000.000000
          1000.461047
          1000.000000
          500.000000
          1000.000000
          1000.000000
          1000.000000
          1000.000000
          1000.000000
          1000.000000
          999.869277
          831.053485
          1000.000000
          999.872778
          1000.666125
          1000.000000
          500.000000
          1000.000000
          500.000000
          1000.000000
          1010.186798
          1000.000000
          1000.000124
          1000.000000
          831.442199
          999.731548
          1000.000000
          1000.000000
          1000.000000
          831.028625
          999.998754
          1000.000000
          1000.000000
          1000.000000
          1000.000000
          1000.000000
          1000.000000
          1000.000000
          1000.000000
          1000.000000
          1000.000000
          1017.744875
          831.319189
          1000.000000
          1000.000000
          1000.000000
          1000.478546
          1000.000000
          831.239400
          1000.000000
          1025.722410
          987.685849
          1000.000000
          831.106500
          995.321140
          1000.000000
          1000.000000
          831.327239
          1000.000000
          1000.000000
          1000.000000
          1000.000000
          1000.000000
          999.983427
          1000.000000
          1000.000000
          831.505478
          999.912331
          1000.000000
          1000.000000
          1000.000000
          1000.000000
          831.442199
          1000.000000
          831.088711
          1000.000000
          1000.000000
          1000.000000
          1000.000000
          1000.000000
          999.999938
          1000.000000
          1000.000000
          1000.000000
          831.201636
          1000.000000
          831.028625
          1000.000000
          1000.000000
          1000.000000
          831.280138
          1000.000000
          999.998805
          500.000000
          1000.000000
          1000.000000
          1000.004309
          1000.000000
          831.319189
          1000.000000
          831.327239
          1000.000000
          1000.000000
          1000.000000
          831.239400
          1000.000000
          999.987056
          1000.000000
          1000.000095
          1000.000000
          1025.630867
          1000.000000
          1000.500054
          1000.000000
          831.505478
          1000.003872
          831.028934
          1000.000000
          995.476520
          1000.000000
          1125.823414
          1000.000000
          831.088711
          1000.000000
          1000.000000
          1000.000000
          1000.000000
          1000.000000
          1001.360175
          1000.000000
          831.422488
          831.053485
          1000.000000
          1000.000000
          1000.000000
          1000.000000
          1000.000000
          1000.000000
          1000.000000
          1000.000000
          831.201636
          999.994038
          1000.000000
          1000.000000
          1000.000704
          999.870570
          831.280138
          1000.000000
          1000.000000
          998.609134
          1000.000000
          1000.000000
          1000.141420
          1000.000000
          1000.000000
          1000.000000
          1000.000000
          1000.000000
          1000.000000
          1000.000000
          1000.000000
          1001.094448
          1000.000000
          1000.000000
          831.028934
          1000.000000
          1000.000000
          984.067236
          1000.002545
          831.505778
          1000.000000
          1047.398684
          1000.000000
          1000.000000
          1000.000000
          831.505778
          1000.000000
          1000.000000
          1000.000015
          1000.000000
          1000.000000
          1000.000000
          1000.000000
          1000.000000
          1000.000000
          1000.000000
          1000.000000
          1000.000000
          1000.000000
          1000.000000
          1000.000000
          1000.000000
          1000.000000
          1000.000000
          1000.000000
          1000.000000
          1000.000000
          1000.018918
          999.904021
          999.996002
          986.871020
          1000.008088
          1000.000000
          831.193997
          1000.026369
          1000.666788
          1000.000000
          1000.001208
          1000.060386
          1000.000000
          1000.000000
          831.193997
          1000.000000
          1000.000000
          1000.000000
          1000.000000
          1000.000000
          1000.000000
          1000.000000
          1000.000000
          995.143191
          1000.000000
          1000.000000
          1000.000000
          1000.000000
          1000.000000
          1052.191510
          1000.000000
          1000.000000
          1000.000000
          1000.000000
          1000.000000
          961.003250
          1000.000000
          500.000000
          1000.000000
          1000.000000
          1000.000000
          1000.005812
          500.000000
          999.996151
          1000.000000
          1000.000000
          1000.000000
          1000.002982
          1000.000000
          1000.000000
          1000.000000
          999.867000
          999.064076
          1000.000000
          1000.000000
          1000.005997
          1000.000000
          1000.000000
          1000.000000
          1000.000000
          1000.000000
          1000.000000
          999.999042
          1000.675568
          1000.000000
          1000.000000
          1000.000000
          987.476168
          1000.000000
          1000.000000
          1000.000000
          1005.362355
          1000.000000
          1000.000000
          1000.000000
          1000.000000
          1000.000000
          1000.000000
          1000.000000
          1000.000000
          1000.000000
          1000.000000
          1000.000000
          999.992453
          1000.000000
          1000.000000
          1000.000000
          1000.000000
          1000.000000
          1000.000000
          1000.000000
          500.000000
          1000.000000
          999.907486
          1000.000000
          1000.000000
          1000.007456
          999.992621
          1000.000000
          999.986102
          1000.000000
          998.362499
          1000.000000
          1000.000000
          999.995068
          1000.000000
          1000.000000
          1000.000000
          1000.000000
          1000.000000
          996.901319
          999.991817
          1000.619974
          1000.000000
          1000.000000
          1000.000000
          1007.133316
          1000.000000
          1000.000000
          831.306995
          1007.798720
          998.157342
          996.108523
          1000.000000
          1000.000000
          831.213300
          1000.000000
          1000.000000
          1000.001639
          1000.000000
          1000.000000
          1000.000000
          1000.001934
          1000.000000
          1000.000000
          998.688023
          1000.000000
          1000.000000
          1000.000000
          500.000000
          1000.000000
          831.189670
          1000.000000
          1000.114025
          1000.000000
          1000.000000
          1000.006442
          1000.697052
          996.902870
          1000.000000
          1000.000000
          999.999373
          999.990051
          831.357903
          998.609134
          1000.704612
          1000.000000
          999.983582
          1000.002939
          1000.000000
          1000.106327
          831.357903
          1000.000000
          1000.000000
          1000.000000
          1000.000000
          1000.000000
          1000.000000
          1000.000000
          1000.000000
          831.449453
          1000.000000
          1000.000000
          1000.000000
          1048.754362
          1000.000000
          1000.000000
          999.872676
          999.808675
          1001.258842
          1000.000000
          1000.000000
          1000.000000
          1000.000000
          1000.000000
          1000.000000
          1000.000000
          1000.000000
          831.415215
          999.876363
          1000.740342
          1000.000000
          1000.000000
          1000.000000
          831.503327
          1000.000000
          1000.000000
          1000.001672
          999.910383
          995.310415
          1000.000000
          1000.000000
          1000.000000
          1000.000000
          1000.000000
          1000.000000
          1000.000000
          999.812630
          1000.000000
          1000.633420
          1000.000000
          1000.000000
          831.156123
          1000.000000
          1000.000000
          984.267508
          1000.000000
          1000.000000
          831.082135
          1000.000000
          831.449453
          1000.000000
          1000.000000
          1000.000000
          1000.000000
          1006.829396
          1000.000000
          1000.000000
          1000.000000
          1000.000000
          831.113062
          1027.144451
          831.213300
          1009.428856
          1000.000000
          1000.000000
          831.031139
          831.189670
          1000.000000
          1000.000000
          1000.000000
          999.990968
          1000.000000
          1000.000000
          831.113062
          1000.000000
          831.165312
          1000.000000
          1000.000000
          1000.000000
          831.031139
          1000.000000
          998.609134
          1000.000000
          1000.000000
          1000.000000
          984.029981
          1000.000000
          1000.673228
          1000.000000
          831.367862
          1000.000000
          831.156123
          1000.000000
          991.939860
          1000.000000
          1000.000000
          999.912407
          831.082135
          1000.000000
          1000.000000
          1000.000000
          1000.000000
          831.306995
          1000.000000
          1000.000000
          1000.000000
          1000.000000
          1000.004377
          1000.000000
          1000.000000
          1000.000000
          1000.252512
          1000.000000
          1000.000000
          1000.000000
          831.415215
          991.267973
          1000.000000
          1000.000000
          1000.000000
          1000.009819
          831.503327
          1000.000000
          1000.594038
          987.709120
          1000.000000
          999.993095
          1000.000000
          1000.000000
          1000.000000
          831.165312
          1000.000000
          999.324717
          1000.000000
          1000.000000
          1000.000000
          1000.000000
          1000.000000
          1000.000000
          831.367862
          1000.000000
          1000.000000
          1000.000000
          1000.000000
          1000.000000
          617.881318
          1000.000000
          619.238984
          1000.000000
          1000.000000
          1000.000000
          1000.000000
          1000.000000
          1000.838201
          1004.413824
          1000.000000
          1000.000000
          1000.000000
          1000.000000
          1000.000004
          619.238984
          999.999981
          1000.000000
          1000.000000
          831.331821
          1000.000000
          1000.000000
          1000.000046
          1000.000000
          999.336653
          831.480478
          1000.000000
          998.385510
          999.999983
          618.038239
          999.999996
          1000.000000
          1000.000000
          1000.000000
          1000.000000
          1000.000000
          1000.007768
          831.480478
          1000.000000
          1000.000000
          1000.001493
          999.333103
          619.974043
          1000.000000
          618.038239
          1000.000152
          1000.000000
          999.814493
          1000.000000
          1000.000000
          1000.000000
          1000.132477
          1000.000000
          1000.000000
          1000.000000
          1000.000000
          994.598527
          999.905725
          1000.000000
          1000.000000
          999.989861
          1000.000000
          999.303158
          1000.000000
          995.681611
          1000.000000
          1000.000000
          999.876147
          1000.000000
          1000.000000
          1000.000000
          1000.000000
          1000.000000
          1000.000000
          1000.000000
          1000.000000
          1000.000000
          1000.000000
          1000.000000
          1000.000000
          1000.000000
          999.991792
          1000.000000
          831.331821
          990.352324
          1000.000000
          1000.000000
          1000.000000
          999.991792
          1000.000000
          1000.000000
          1000.000000
          999.872877
          999.999928
          1000.000000
          1000.000000
        </DataArray>
        <DataArray type="Float64" Name="pressure" format="ascii">
          0.000000
          -0.000000
          0.000000
          -607.048932
          0.000000
          -20267.219865
          0.000000
          0.000000
          -0.000000
          -10.047410
          -0.369259
          -0.000000
          1512.872786
          0.000002
          -0.000000
          0.000000
          -0.000000
          -10.113299
          -0.000000
          0.315732
          0.000002
          0.000000
          -0.084895
          347.171723
          0.000000
          -0.000000
          -0.000000
          -9.725246
          0.000000
          -0.145591
          0.000000
          -0.000000
          -0.039392
          -0.000000
          0.000005
          0.000000
          0.000000
          0.000000
          0.000000
          0.000000
          -2355.798349
          0.000004
          -0.000000
          0.000000
          0.000000
          0.000000
          -0.000000
          -0.088365
          -0.000000
          0.000000
          0.404885
          -45854.241864
          0.000000
          -45691.321921
          -0.000000
          -0.000000
          -0.000000
          0.000000
          -1610.651916
          0.000000
          -20229.301352
          -0.000000
          0.000000
          -0.000000
          -0.000000
          -0.000000
          -45691.321921
          -0.000000
          -0.000000
          -0.000000
          0.000000
          0.000000
          -0.000000
          0.000000
          0.000000
          0.000000
          0.000000
          -0.000000
          55.325607
          -0.000000
          -60000.000000
          -0.000000
          0.000000
          -0.000000
          -0.000000
          -0.000000
          -0.000000
          -15.686815
          -20273.581833
          0.000000
          -15.266631
          79.934995
          -0.000000
          -60000.000000
          0.000000
          -60000.000000
          0.000000
          1222.415780
          0.000000
          0.014924
          -0.000000
          -20226.936080
          -32.214220
          0.000000
          -0.000000
          -0.000000
          -20276.564971
          -0.149572
          -0.000000
          -0.000000
          0.000000
          0.000000
          -0.000000
          -0.000000
          0.000000
          -0.000000
          -0.000000
          0.000000
          2129.384971
          -20241.697314
          0.000000
          -0.000000
          -0.000000
          57.425488
          -0.000002
          -20251.271986
          0.000000
          3086.689217
          -1477.698128
          0.000000
          -20267.219965
          -561.463195
          0.000000
          -0.000000
          -20240.731349
          -0.000000
          0.000000
          0.000000
          0.000000
          0.000000
          -1.988782
          0.000000
          -0.000000
          -20219.342609
          -10.520283
          -0.000000
          -0.000000
          0.000000
          0.000000
          -20226.936080
          0.000000
          -20269.354701
          0.000000
          -0.000000
          -0.000000
          -0.000000
          -0.000000
          -0.007412
          0.000000
          -0.000000
          -0.000000
          -20255.803713
          -0.000000
          -20276.564971
          -0.000000
          -0.000000
          -0.000000
          -20246.383444
          -0.000000
          -0.143427
          -60000.000000
          -0.000000
          -0.000000
          0.517091
          0.000000
          -20241.697314
          0.000000
          -20240.731349
          -0.000000
          0.000000
          -0.000000
          -20251.271986
          0.000000
          -1.553296
          0.000000
          0.011356
          0.000000
          3075.703991
          -0.000000
          60.006440
          0.000000
          -20219.342609
          0.464685
          -20276.527878
          -0.000000
          -542.817584
          -0.000000
          15098.809740
          0.000000
          -20269.354701
          -0.000000
          -0.000000
          0.000000
          0.000000
          0.000000
          163.221012
          0.000000
          -20229.301410
          -20273.581833
          0.000000
          -0.000000
          -0.000000
          0.000000
          0.000000
          0.000000
          -0.000000
          -0.000000
          -20255.803713
          -0.715496
          0.000000
          -0.000000
          0.084472
          -15.531590
          -20246.383444
          -0.000000
          0.000000
          -166.903963
          -0.000000
          -0.000000
          16.970432
          0.000000
          -0.000000
          -0.000000
          -0.000000
          -0.000000
          -0.000000
          -0.000000
          0.000000
          131.333763
          -0.000000