<?xml version="1.0"?>
<VTKFile type="PolyData" version="0.1" byte_order="LittleEndian">
  <PolyData>
    <Piece NumberOfPoints="396" NumberOfVerts="396" NumberOfLines="0" NumberOfStrips="0" NumberOfPolys="0">
      <Points>
        <DataArray type="Float64" NumberOfComponents="3" format="ascii">
          -0.244291 -0.031974 7.306119
          -0.355209 -0.020243 7.473466
          -0.226068 -0.156564 7.185610
          0.749113 1.990132 -0.324990
          -0.277973 -0.630337 1.867317
          0.718508 0.340357 7.104025
          0.569936 1.773475 -0.327855
          -0.538558 -1.792350 6.920439
          -0.314185 -0.187164 7.260994
          1.341604 -0.489446 1.868664
          0.088537 -0.400454 1.850541
          -0.273310 -0.404347 6.905594
          0.247809 2.421771 7.294164
          -0.259797 -0.152355 7.302056
          0.419742 -0.601167 1.868660
          0.351753 2.568515 7.405974
          -0.597904 0.217293 7.418851
          1.678235 -0.350731 1.868738
          -0.686231 -1.708914 6.965295
          -0.796076 0.515725 7.179840
          -0.746909 1.014281 -0.450204
          -0.530741 -1.802042 7.082697
          0.739783 0.262374 7.294412
          1.634410 -0.224012 1.868657
          -0.012518 -0.714184 1.857386
          0.316432 2.537165 7.443194
          0.338099 0.318822 6.971739
          0.467264 -0.608940 1.869004
          -0.858240 1.730599 0.488982
          -0.448031 0.203226 7.243477
          -0.021835 -0.830593 1.869518
          -0.518893 -0.113898 7.277393
          -0.265303 -0.420560 6.889682
          -0.199942 -0.668724 1.870175
          -0.985756 1.714340 0.474805
          0.933427 -1.946181 7.415164
          1.553321 -0.311048 1.854016
          -0.859743 0.577334 7.225603
          -0.304701 -0.337640 6.872294
          -0.522134 0.340408 7.141381
          -0.414485 -1.843721 7.172204
          -0.669551 -1.732915 6.892998
          -1.752380 -0.304848 1.866528
          -0.321988 -0.412380 6.926032
          0.669922 -2.062188 7.602119
          1.384148 -0.420713 1.866720
          0.070387 0.317504 7.520745
          -0.494225 -2.077057 7.156183
          -0.693552 -1.784532 6.939525
          0.231354 0.120805 7.451750
          -0.972112 1.671166 0.463857
          -1.505547 -0.194231 1.870281
          0.727174 0.201347 7.350844
          -0.507827 0.350677 7.185718
          -0.750214 0.110785 7.323591
          -0.292108 0.363756 7.207119
          -0.503509 -2.088332 7.221312
          -0.705359 1.046491 -0.485516
          -0.493661 0.302091 7.207885
          0.132280 0.373185 7.473478
          -1.511314 -0.092962 1.862761
          0.382613 0.184236 7.508326
          0.541587 1.373517 7.366199
          1.412386 -0.612630 1.856603
          -0.288295 -0.362496 6.893501
          -0.718508 0.366931 7.135015
          1.639292 -0.224602 1.867483
          0.689021 0.251796 7.407136
          -0.278278 -0.366735 6.898105
          -0.384879 -2.138743 7.201410
          -0.965787 0.493684 7.320342
          0.360547 2.478481 7.447693
          4.827853 -1.742591 5.861869
          0.357539 0.140216 7.445607
          1.369308 -0.380873 1.866769
          1.574214 -0.280987 1.871339
          -1.481021 -0.091815 1.866972
          3.444324 0.177958 4.529167
          0.364033 0.130131 7.315180
          -0.682414 0.020267 7.396024
          0.147348 0.147334 7.518296
          -0.657073 0.256609 7.194095
          -0.945942 1.726165 0.453403
          -0.919068 0.468551 7.315347
          0.242533 0.543161 7.587774
          -0.006515 -0.795272 1.864670
          0.703605 -2.060746 7.612657
          0.577590 1.243805 7.583172
          0.390617 0.206175 7.165185
          -0.915097 1.729378 0.487569
          0.545718 1.386188 7.417895
          0.803655 1.745040 -0.318439
          0.658482 1.338969 7.488696
          0.739145 -1.756114 7.368904
          -0.301725 -0.293677 7.327028
          -0.291562 -2.040136 7.323752
          0.267285 0.131389 7.308017
          -0.560717 -2.065359 7.212748
          0.004285 0.239731 7.331655
          0.663139 0.416533 7.094609
          0.434412 -0.632118 1.868701
          -0.387069 -2.189100 7.221073
          2.998816 1.583250 5.735211
          0.319325 2.396921 7.505361
          1.671087 -0.257735 1.869519
          1.406200 -0.439809 1.866718
          -0.794872 1.080921 -0.414061
          3.517865 0.298679 4.527764
          -0.356208 -0.344432 6.940125
          -0.713461 -1.758583 6.896016
          -0.780527 1.097676 -0.409166
          -0.402429 -1.807098 7.079940
          -0.514240 0.114175 7.296201
          -0.960814 1.762278 0.423259
          -1.586773 -0.181389 1.871106
          0.415962 -0.561924 1.868672
          -0.210905 -0.028408 7.383568
          -0.148343 -0.234381 1.858324
          -0.092557 -0.369425 1.872234
          -0.692062 0.036615 7.473443
          -0.842706 0.516724 7.107233
          -0.623649 0.049047 7.492708
          -0.197649 0.057210 7.255587
          -0.433335 -0.221789 7.403551
          -0.671075 0.028951 7.467091
          0.155762 0.169610 7.455617
          -0.712965 -1.775819 7.053968
          -0.419182 0.002872 7.253487
          0.401867 0.455712 7.382630
          -0.454179 -1.876777 7.263481
          -0.916649 0.553178 7.250243
          -0.216907 -0.120012 7.410051
          -1.554741 -0.396040 1.866694
          -0.889217 1.683893 0.500791
          -0.581382 -0.530150 1.870527
          -0.050658 -0.812517 1.864285
          -0.787474 1.077118 -0.387192
          -0.724966 0.121162 7.341306
          -0.957091 0.402241 7.154262
          -0.703088 0.282705 7.278970
          -0.002061 -0.804193 1.865870
          -0.779085 1.072703 -0.333221
          -0.696893 -1.833070 6.905884
          -0.103676 -0.695452 1.868414
          4.912422 -1.733663 5.861012
          -0.055118 -0.539643 1.866472
          -0.563372 -1.834484 6.926680
          0.401517 -0.593656 1.868673
          0.521957 0.457710 7.297148
          5.567003 -0.419426 4.507384
          0.468568 1.484293 7.527220
          1.439021 -0.446571 1.866651
          0.551205 0.415770 7.395069
          -0.673876 -1.744559 6.868224
          0.540042 0.099563 7.203899
          0.808571 1.869746 -0.284589
          -0.243424 -0.136495 7.475428
          -0.568405 -0.426524 1.867948
          0.312535 2.408088 7.397877
          0.707077 0.304596 7.216439
          -0.662081 -0.467773 1.866459
          -0.542707 -2.003778 7.232905
          -1.011551 1.735919 0.490889
          0.224902 2.534516 7.361430
          0.806393 -1.698762 7.369428
          -0.316699 -0.268618 7.244778
          -0.434085 -0.536236 1.870544
          0.564276 1.336293 7.438774
          -0.927529 0.550319 7.133216
          1.401821 -0.628634 1.863197
          0.437649 0.420385 7.519600
          0.464420 1.430190 7.579885
          0.821782 -1.985207 7.315493
          -0.412900 -0.573605 1.868472
          3.028971 1.510845 5.871594
          -0.816744 1.038975 -0.417545
          0.451858 1.537441 7.527246
          -0.916243 1.704416 0.458305
          0.665295 -2.111973 7.569211
          3.503585 0.324947 4.526284
          1.497594 -1.300602 7.841576
          0.238413 0.297335 7.232498
          -0.397011 0.154979 7.229841
          -0.563825 -0.501663 1.868774
          0.575043 0.148578 7.366670
          0.397220 1.346094 7.448813
          -0.000001 -3.078132 5.755757
          0.408100 -0.588207 1.868643
          -0.210091 -0.246083 7.250175
          -0.026661 -0.248708 1.868785
          0.753710 -2.160795 7.441338
          1.471628 0.248307 5.852665
          0.324486 2.482496 7.523199
          -0.238428 0.366823 7.210243
          0.381384 0.502932 7.645258
          0.382747 1.357233 7.509677
          -0.681672 -0.425372 1.857900
          0.525230 1.283689 7.416923
          0.741858 -1.818238 7.332747
          -0.547014 -0.407576 1.866618
          0.413047 0.143274 7.535882
          -0.396229 -0.548638 1.868413
          0.552604 1.756526 -0.334705
          -0.393933 -2.137573 7.275066
          0.000001 3.078132 5.755758
          -0.939350 1.774883 0.440328
          0.318510 0.318610 7.124976
          -0.576256 -0.523652 1.866555
          0.494679 1.407095 7.406683
          0.563625 1.178222 7.405556
          0.070046 2.329313 7.220313
          0.682239 0.307104 7.157709
          -0.689822 -0.466259 1.867246
          -0.107816 -0.250230 1.867984
          -0.073342 -0.799017 1.869629
          -0.328307 -2.057640 7.158127
          -3.541940 0.104003 5.781302
          0.163256 -0.596128 1.861274
          -0.296604 -2.086419 7.252811
          0.431247 -0.507907 1.868638
          -0.068031 0.271751 7.208652
          -3.306735 -0.103094 4.662206
          0.155764 2.443777 7.340544
          -1.446746 -0.159182 1.868458
          -0.278650 0.348367 7.257169
          0.580104 -1.979067 7.600757
          -0.612736 0.044176 7.506940
          -0.739282 1.028758 -0.452560
          -0.254011 -0.442140 1.866491
          0.029414 -0.219764 1.868381
          0.329408 2.414393 7.337281
          -0.126156 0.124669 7.234339
          0.027545 -0.226416 1.866928
          -0.444761 -1.815400 7.123066
          0.811700 1.743391 -0.308612
          0.297358 0.336252 7.252274
          -0.429039 -1.885016 7.218701
          -0.481015 -0.044767 7.519478
          -0.695034 -0.492479 1.867802
          0.206298 2.327650 7.510063
          -0.978865 0.447151 7.232457
          -1.605887 -0.121072 1.869475
          -0.155472 0.193108 7.184245
          0.256445 2.490976 7.534613
          -0.406891 -1.995109 7.116254
          -0.036926 -0.374609 1.868224
          -3.611107 0.047674 5.818301
          0.770680 2.024717 -0.311728
          0.174494 2.366503 7.396653
          0.596647 1.900584 -0.338782
          -0.635284 -1.822521 7.145515
          -3.289782 -0.055109 4.654523
          -0.310676 -0.316889 7.353759
          0.713706 -2.105435 7.562683
          0.868626 1.901828 -0.321130
          0.505539 0.177110 7.027979
          1.580021 -0.213014 1.868664
          0.656648 1.873269 -0.286089
          1.359481 -0.563589 1.869710
          -0.115259 -0.351626 1.868761
          -0.010641 -0.335988 1.871314
          0.753463 1.798946 -0.290439
          -0.068983 -0.829484 1.869746
          0.471688 0.433193 6.926420
          0.692407 0.308436 7.240183
          -0.238142 -0.193878 7.449433
          -0.189278 0.238251 7.171630
          0.661686 0.145267 7.375497
          -0.238217 -0.318753 6.914552
          -0.721132 0.366515 7.133296
          0.761678 -2.130518 7.491658
          0.028921 0.278043 7.526533
          0.209411 0.444871 7.620778
          0.864470 -1.834284 7.343947
          0.219939 0.387359 7.518046
          -0.356287 0.322653 7.286109
          1.392479 -0.543476 1.869669
          0.656550 1.800849 -0.316732
          0.112841 -0.292591 1.866527
          -0.305211 -0.546865 1.868936
          0.612002 1.742427 -0.314188
          0.699565 0.419105 7.212841
          -0.696668 -0.004113 7.439619
          0.322763 0.386493 7.174164
          1.641924 -0.304690 1.870753
          0.492063 0.313283 6.916535
          0.264382 0.520523 7.639264
          0.447081 -0.574203 1.868649
          -3.545940 0.118545 5.772996
          0.750682 -2.062265 7.316775
          -1.499670 -0.071719 1.866285
          -1.574115 -0.308163 1.865535
          1.387534 -0.353727 1.866735
          -3.238955 -0.106167 4.616254
          0.566284 0.347686 7.525234
          0.311429 0.363309 6.988237
          0.681147 0.221296 7.497239
          -0.037302 0.341686 7.351752
          0.756631 1.998926 -0.286400
          0.387846 0.147410 7.447342
          -0.298904 -0.358061 6.970087
          0.060148 -0.342588 1.868452
          -0.625320 -1.857460 7.119901
          -0.903061 0.512091 7.222884
          -0.294426 0.359780 7.251014
          0.586779 1.770602 -0.321874
          0.652597 0.358652 7.069351
          -0.753061 1.070643 -0.447631
          0.387290 1.399370 7.473382
          -0.406722 -2.035616 7.400895
          0.427250 0.453320 7.294162
          0.858271 -2.093855 7.496411
          0.460082 0.235022 7.023855
          0.764640 -2.120657 7.475872
          0.596612 0.217024 7.498061
          0.602778 0.214888 7.112888
          1.613872 -0.213239 1.869465
          0.896257 -1.920236 7.395110
          -3.531274 0.117824 5.795296
          0.672201 1.340606 7.498555
          -1.619932 -0.451436 1.866633
          -1.659810 -0.429028 1.867052
          1.619906 -0.312316 1.870136
          -3.318303 -0.123675 4.673702
          -1.657596 -0.454398 1.866607
          0.554662 0.360252 7.459952
          -0.083503 0.179797 7.261778
          0.364675 0.374381 7.601617
          0.732973 -2.027257 7.543735
          -0.025943 0.252646 7.369168
          1.330039 -0.387438 1.866660
          0.227294 2.322461 7.520065
          -0.530094 -1.823918 6.903034
          -1.664289 -0.386226 1.866580
          -0.372762 0.040750 7.386292
          0.821671 -1.721079 7.347588
          0.645518 -2.025841 7.616879
          -0.748426 -1.807287 6.976127
          0.198238 0.544419 7.584049
          -0.476505 -0.556148 1.868396
          -0.019905 0.168445 7.434725
          0.493626 0.277625 6.952077
          -0.846635 0.364372 7.251887
          -1.674322 -0.490446 1.866540
          0.790107 -1.818623 7.479970
          -0.272767 -0.219726 7.190053
          -0.835386 0.449781 7.262235
          0.461691 0.180983 7.521997
          1.498057 -0.474686 1.870669
          0.481487 0.406472 6.927108
          0.209841 2.429824 7.565287
          -1.525394 -0.238776 1.866678
          -0.430945 0.170854 7.174887
          0.387136 0.413366 7.074518
          -1.633962 -0.300332 1.871251
          0.209353 0.530933 7.644435
          -0.096624 0.367682 7.362464
          0.687285 -1.893723 7.299676
          0.491956 0.394181 6.991006
          0.516849 1.248665 7.425347
          0.299439 0.510062 7.530789
          0.321487 0.144618 7.353637
          -0.727370 0.404546 7.320239
          -0.942940 1.746891 0.443232
          -0.015132 -0.248787 1.866591
          -0.915446 0.401349 7.142956
          -0.768891 1.118929 -0.395914
          0.751973 -1.784669 7.410720
          0.657935 0.158649 7.398698
          -1.630912 -0.167268 1.866676
          -0.059864 -0.743399 1.869878
          -0.717777 0.028780 7.490590
          0.516493 1.412575 7.412313
          0.273292 0.500923 7.636629
          -0.390343 -0.662534 1.868395
          0.599976 1.376679 7.531184
          -0.354159 -0.341578 6.983017
          -1.670855 -0.449337 1.866726
          0.667213 -1.912568 7.384903
          0.787401 -1.863819 7.428857
          0.776217 1.976824 -0.360503
          0.689118 -2.110289 7.465484
          0.550622 0.338376 6.930033
          -1.452200 -0.075606 1.869043
          0.350981 -0.649814 1.868698
          0.212118 2.431644 7.475101
          -0.579181 -0.015238 7.251401
          0.126304 -0.609664 1.869197
          0.753122 1.771863 -0.318500
          -0.074740 0.324232 7.408275
          -0.268829 -0.393559 6.972367
          -0.611449 -0.061122 7.499795
          -0.404418 -0.228117 7.251816
          0.390745 -0.633518 1.864084
          0.859630 1.922464 -0.318656
          -0.333722 -2.007800 7.224369
        </DataArray>
      </Points>
      <PointData Scalars="density">
        <DataArray type="Float64" Name="density" format="ascii">
          1171.682119
          893.577928
          952.999464
          887.482957
          880.675398
          885.077781
          784.515583
          959.367038
          1181.508523
          991.173151
          887.693499
          959.833675
          860.763537
          1211.858986
          933.791692
          806.667754
          893.970550
          871.831236
          944.647627
          1049.615639
          837.426735
          1133.275677
          1022.983659
          948.483886
          980.736839
          980.422263
          879.851100
          871.858590
          892.929499
          1088.522191
          859.634172
          878.698131
          920.644529
          937.256463
          928.645058
          854.960373
          1182.574328
          976.964559
          933.275355
          807.678736
          1005.425292
          939.869275
          822.317666
          927.357603
          962.093980
          1110.797340
          930.131930
          1022.800159
          1013.529878
          909.200615
          929.159918
          1090.140106
          967.925560
          896.425001
          845.842626
          910.636090
          997.492548
          767.897339
          990.320086
          1036.371760
          922.673520
          1066.719381
          1090.315151
          763.152485
          972.416338
          941.079100
          927.528910
          1045.096207
          981.477191
          963.763127
          861.368910
          1005.286238
          500.000000
          1076.845783
          1069.197109
          1112.342214
          866.335108
          500.000000
          987.385546
          1024.941379
          802.064202
          939.091796
          970.833184
          955.804445
          887.864379
          926.238571
          990.367730
          833.260643
          1042.368460
          952.445713
          1208.087498
          908.764580
          948.226127
          864.756830
          936.197911
          768.877646
          872.506611
          870.572923
          1049.190463
          919.835051
          904.452425
          764.189008
          500.000000
          1013.475330
          952.498983
          1143.993341
          864.556854
          500.000000
          949.087184
          915.801558
          867.158977
          844.113724
          1144.687284
          925.871447
          1133.426116
          926.794412
          973.823931
          814.839058
          1086.100396
          969.399001
          936.991644
          1002.994028
          1005.330631
          896.158998
          1020.571418
          984.184407
          924.517754
          1076.854898
          903.998150
          991.209531
          984.542716
          999.358421
          978.071269
          906.340480
          1035.721898
          911.521994
          849.617155
          958.012951
          875.288871
          1004.266934
          882.465361
          772.252448
          915.127559
          1014.595416
          500.000000
          995.936911
          1032.305305
          949.496738
          896.089928
          500.000000
          976.403550
          1182.689335
          1011.495409
          879.567913
          787.219232
          1009.326653
          857.247062
          955.375566
          1066.534654
          1080.946812
          908.477139
          1057.013922
          891.370936
          883.131054
          716.405015
          1036.178399
          1057.147464
          1220.459028
          891.289294
          693.800899
          1037.069937
          938.495271
          1012.106267
          986.105956
          500.000000
          837.656882
          727.284885
          959.489837
          987.575130
          500.000000
          500.000000
          868.402659
          1063.156779
          1066.556625
          1124.051017
          1051.054952
          500.000000
          945.032570
          952.729513
          1039.402560
          926.526597
          500.000000
          987.203968
          905.290952
          805.890658
          991.795716
          767.591632
          1114.427053
          989.450347
          932.557267
          911.450048
          991.237884
          751.406152
          936.767134
          500.000000
          937.860167
          970.305442
          1054.488768
          1178.514150
          740.061715
          500.000000
          1125.680706
          804.848010
          955.180081
          893.852425
          999.591471
          500.000000
          786.907482
          870.647365
          802.746496
          907.950670
          500.000000
          897.117828
          909.330220
          991.626629
          702.032691
          950.516537
          847.036875
          850.724402
          915.356712
          915.553327
          944.306614
          942.166647
          1014.427460
          839.655102
          954.935452
          1071.358252
          816.807486
          826.631883
          867.898604
          973.521126
          995.330803
          939.825178
          1006.594514
          1102.001321
          1108.657324
          500.000000
          814.008039
          967.573069
          892.198955
          970.848951
          500.000000
          833.568076
          1072.790566
          866.586020
          892.724868
          989.114915
          1098.904930
          883.970497
          1045.587931
          1115.708298
          1089.706510
          869.937156
          821.620283
          1111.021912
          905.610805
          981.194186
          981.239652
          894.234455
          923.630326
          1082.373058
          857.825300
          946.560611
          937.007241
          1143.125775
          955.667427
          956.944170
          1073.803804
          870.431343
          910.418706
          894.938676
          887.180623
          966.683402
          911.296036
          1041.861193
          945.609112
          883.657268
          917.778003
          500.000000
          917.998376
          874.668997
          1181.962046
          1076.615762
          500.000000
          924.720888
          810.306267
          871.084980
          949.061673
          856.461964
          1093.642341
          1020.230630
          1011.033620
          1023.506240
          1115.061724
          927.111785
          848.213234
          1067.893276
          867.906196
          939.321951
          665.553030
          872.496520
          976.688666
          1089.761592
          1116.388483
          1068.201855
          1090.368318
          940.798945
          994.424224
          500.000000
          911.069401
          921.744092
          942.663576
          1074.470359
          500.000000
          902.537939
          1072.691812
          1010.767421
          1035.773433
          1197.212798
          1061.712106
          913.163439
          883.166866
          897.739715
          1033.337642
          1072.948600
          766.061784
          874.430440
          888.085745
          817.426060
          1056.186842
          887.448724
          1024.716339
          1104.557994
          759.033519
          981.395906
          1043.609359
          1167.076383
          1024.495559
          1117.761553
          916.700798
          888.244618
          1166.125414
          957.082876
          1000.815108
          1170.416021
          802.536970
          918.432769
          923.987896
          1094.483843
          1052.692469
          991.275034
          1003.134465
          914.897033
          957.598043
          1033.839174
          1030.600218
          842.729241
          995.632037
          1018.576463
          1035.090330
          990.505567
          877.685509
          1168.423446
          917.476699
          773.720262
          1117.439638
          968.692364
          875.413092
          1082.688529
          1204.402269
          896.503599
          1096.064375
          959.805689
          783.860924
          900.773828
          1115.731163
          835.255489
          803.260087
          1025.543169
          940.502060
          980.919541
          872.799836
          992.058830
          931.118471
          907.088708
          1059.675800
        </DataArray>
        <DataArray type="Float64" Name="pressure" format="ascii">
          5150.463563
          -3192.662169
          -1410.016076
          -3375.511295
          -3579.738053
          -3447.666572
          -6464.532511
          -1218.988859
          5445.255692
          -264.805474
          -3369.195031
          -1204.989760
          -4177.093897
          6355.769585
          -1986.249247
          -5799.967393
          -3180.883514
          -3845.062926
          -1660.571198
          1488.469170
          -4877.197962
          3998.270314
          689.509758
          -1545.483407
          -577.894841
          -587.332121
          -3604.467000
          -3844.242301
          -3212.115017
          2655.665729
          -4210.974827
          -3639.056073
          -2380.664131
          -1882.306098
          -2140.648249
          -4351.188811
          5477.229837
          -691.063238
          -2001.739347
          -5769.637933
          162.758752
          -1803.921754
          -5330.470016
          -2179.271911
          -1137.180597
          3323.920203
          -2096.042108
          684.004774
          405.896330
          -2723.981565
          -2125.202450
          2704.203177
          -962.233187
          -3107.249960
          -4624.721213
          -2680.917314
          -75.223573
          -6963.079832
          -290.397407
          1091.152798
          -2319.794394
          2001.581438
          2709.454528
          -7105.425456
          -827.509847
          -1767.626993
          -2174.132712
          1352.886221
          -555.684270
          -1087.106186
          -4158.932686
          158.587147
          -15000.000000
          2305.373492
          2075.913264
          3370.266435
          -4009.946773
          -15000.000000
          -378.433607
          748.241378
          -5938.073948
          -1827.246118
          -875.004481
          -1325.866656
          -3364.068629
          -2212.842856
          -288.968092
          -5002.180712
          1271.053794
          -1426.628619
          6242.624948
          -2737.062602
          -1553.216202
          -4057.295095
          -1914.062656
          -6933.670631
          -3824.801680
          -3882.812304
          1475.713897
          -2404.948476
          -2866.427254
          -7074.329764
          -15000.000000
          404.259894
          -1425.030525
          4319.800222
          -4063.294395
          -15000.000000
          -1527.384486
          -2525.953258
          -3985.230698
          -4676.588269
          4340.618514
          -2223.856586
          4002.783487
          -2196.167644
          -785.282067
          -5554.828268
          2583.011890
          -918.029960
          -1890.250687
          89.820832
          159.918921
          -3115.230058
          617.142539
          -474.467798
          -2264.467368
          2305.646940
          -2880.055508
          -263.714066
          -463.718513
          -19.247378
          -657.861917
          -2809.785610
          1071.656926
          -2654.340190
          -4511.485355
          -1259.611479
          -3741.333873
          128.008020
          -3526.039184
          -6832.426570
          -2546.173241
          437.862492
          -15000.000000
          -121.892664
          969.159159
          -1515.097867
          -3117.302173
          -15000.000000
          -707.893495
          5480.680048
          344.862256
          -3612.962596
          -6383.423032
          279.799582
          -4282.588126
          -1338.733016
          1996.039618
          2428.404358
          -2745.685839
          1710.417654
          -3258.871911
          -3506.068386
          -8507.849542
          1085.351963
          1714.423914
          6613.770827
          -3261.321170
          -9185.973029
          1112.098124
          -1845.141878
          363.188021
          -416.821310
          -15000.000000
          -4870.293543
          -8181.453445
          -1215.304903
          -372.746103
          -15000.000000
          -15000.000000
          -3947.920223
          1894.703356
          1996.698751
          3721.530523
          1531.648569
          -15000.000000
          -1649.022908
          -1418.114602
          1182.076790
          -2204.202077
          -15000.000000
          -383.880958
          -2841.271438
          -5823.280257
          -246.128519
          -6972.251052
          3432.811579
          -316.489591
          -2023.281996
          -2656.498567
          -262.863467
          -7457.815442
          -1896.985989
          -15000.000000
          -1864.194992
          -890.836750
          1634.663049
          5355.424500
          -7798.148558
          -15000.000000
          3770.421183
          -5854.559696
          -1344.597569
          -3184.427241
          -12.255859
          -15000.000000
          -6392.775548
          -3880.579063
          -5917.605112
          -2761.479887
          -15000.000000
          -3086.465159
          -2720.093391
          -251.201133
          -8939.019274
          -1484.503893
          -4588.893739
          -4478.267949
          -2539.298652
          -2533.400181
          -1670.801576
          -1735.000576
          432.823789
          -4810.346925
          -1351.936432
          2140.747573
          -5495.775412
          -5201.043507
          -3963.041874
          -794.366223
          -140.075911
          -1805.244648
          197.835429
          3060.039638
          3259.719734
          -15000.000000
          -5579.758842
          -972.807929
          -3234.031347
          -874.531476
          -15000.000000
          -4992.957727
          2183.716981
          -4002.419392
          -3218.253950
          -326.552545
          2967.147913
          -3480.885102
          1367.637923
          3471.248943
          2691.195298
          -3901.885331
          -5351.391499