<?xml version="1.0"?>
<VTKFile type="PolyData" version="0.1" byte_order="LittleEndian" header_type="UInt32" compressor="vtkZLibDataCompressor">
  <PolyData>
    <Piece NumberOfPoints="686" NumberOfVerts="686" NumberOfLines="0" NumberOfStrips="0" NumberOfPolys="0">
      <PointData>
        <DataArray type="Float64" Name="density" format="ascii" RangeMin="587.6834943117619" RangeMax="1195.870664857609">
          944.4687314867462 906.4011869798494 1007.7377663505209 1054.451786208567 1022.6259427670907 901.6536286473577
          1133.4272478841717 997.6367604495249 816.3748101184825 969.8520604921807 966.0203344227158 1029.6202681836257
          863.7355313778233 1049.7513587376961 999.018087211027 1034.2069369206565 847.6559941773907 734.6868371062441
          1048.0615236826707 939.2916182379787 1041.4222217476938 963.5309027873712 1015.3444797828479 772.1628566492357
          1014.0405501797344 731.5196466403322 1022.5117819181214 982.9726677588166 999.0180911772374 1034.206820657044
          847.6467392011192 734.6868035128467 1048.06156233667 939.2917393123057 1041.4222351874887 997.6368112566885
          816.3758012128532 969.8519519607263 966.0200167811145 1029.6202860360527 863.7358039456243 1049.7513769513364
          944.4695076247557 906.4015127481262 1007.7376084999203 1054.452014681741 1022.6258501972886 901.6533631934252
          1133.4274784243235 856.6260178325012 1060.7707194493994 593.853005871258 1028.4885233586876 593.5285063126141
          1053.881584594096 976.1363700550928 974.9268667072811 842.1398309660766 948.2784525309787 1133.2631080530443
          1055.2048459031594 1030.0589311483388 882.8746122415608 593.8251221700299 854.1032993597595 956.1647083354202
          588.1472814778307 954.0546200396406 1021.9722889321478 593.5469535358305 939.8479144359047 1011.6157403657842
          588.6459939125701 999.0697778568921 587.6834943117619 860.3373072648914 882.2462811728813 593.8251217433555
          854.1035062984699 956.1647083273328 588.1472821300019 954.0546200842359 1021.9678905615724 593.5469535050931
          974.9272771387666 842.1397815787628 948.2772839203525 1133.2635662769421 1055.198378181645 1030.0595139595268
          882.8746930971461 856.6258355316828 1060.7708509561037 593.8530066796624 1028.4888074792011 593.5285058287478
          1053.8815969952802 976.1353284436898 1003.4072148907214 1064.5202513551512 1013.5021529523821 815.2334508402907
          913.6829524565792 1089.9082658624156 1084.8163402029193 955.8166209199911 763.0424670523535 1051.098349694137
          1082.5171296025542 882.342688210497 800.4439663712254 898.6592218858282 1054.984146896058 1030.88704924991
          1090.2832967872182 1001.2454933167551 970.0537001523213 859.9921215010559 886.5760941254874 823.1655640664593
          995.513811996379 1089.0407337264826 790.6116524045278 933.684733770322 1018.0159560907588 831.0217226652741
          1054.9837496375221 1030.889886106545 1090.2885847448142 1001.2490444404536 970.0527337267861 859.9957428706124
          886.5758816540728 955.8159083326301 763.0428349259912 1051.0960783028481 1082.5172283677298 882.3469417157843
          800.4440332625009 898.6590808340212 1003.4104659373337 1064.5208294814079 1013.5018375000428 815.2331416441162
          913.6830410385603 1089.9085197637587 1084.8219041860257 969.6537084853979 871.6273918419213 819.4859767706363
          915.8318495023847 815.6323760228545 786.7876441105075 996.9503256933971 895.2559253311825 975.9030722602931
          1049.9248709319043 1010.9100272861689 1034.4991421525638 882.4056686492619 894.4721782047689 823.0950805369218
          1041.7575764259414 783.7334607833413 941.6320483370384 796.5278961811373 1041.8172152276502 829.621754807473
          987.1147272727911 1032.0887717243709 938.7037043110029 926.2888019149365 938.5919927753085 935.5565434523304
          830.7759623549072 819.4722150728217 1041.7575789343464 783.7334761191606 941.6320474102432 796.5278134757818
          1041.8172134598717 830.9341490933742 895.2557700341767 975.9029840676701 1049.924872147109 1010.9133200280779
          1034.4991403159324 882.4052358276458 894.4722348088576 969.6506450860738 871.6274014282511 819.4860983676602
          915.8470574163623 815.6322050333011 786.7875022203067 996.9417698493539 762.7069220037043 1018.3690014191658
          944.6228733954011 816.3960417612727 809.8145422446329 1025.1563646677964 844.7956774881197 1019.780682297496
          1016.191288377869 1034.9137388462893 1014.9611737080306 1014.7473297174658 1024.8312422609765 1023.2240244850751
          857.9407399723829 1081.9982032373518 985.4745639271142 973.1571458893984 897.2954863791485 913.9876574546165
          961.7915634956571 818.2752964961709 967.7199358088204 898.1802328053313 1090.3601234036041 1195.870664857609
          927.445175375787 831.2500721082729 857.9405898025423 1081.997986002548 985.4730202286137 973.1556631908825
          897.2948099816915 913.987646754915 961.7920440866247 1019.7806786887365 1016.1801250666914 1034.9145635657612
          1014.9575839076168 1014.747274375492 1024.8408215674976 1023.2240243049645 762.7026146887423 1018.3690067344976
          944.6227857362368 816.3953231123555 809.8147634374591 1025.1563688168746 844.7957073714812 812.9389441459787
          800.6769016166022 898.6810083433419 1079.7167133255432 889.6531708624248 916.5078518926624 907.9229269108567
          783.2847426284691 924.9449058869776 872.9003481934038 1140.103303687774 858.1707590728198 968.478369115074
          918.5261813997611 901.4228836437198 878.2150253213629 912.1878594513405 1005.8480950422494 903.731319777455
          858.1704724372242 880.8451626401295 1070.6408544164997 937.0070359775449 944.2636822248072 1051.526238141949
          966.5895787038228 914.165626264839 1090.9912186172091 901.4228808406292 878.215053577762 912.1921635069475
          1005.8454191495953 903.7301184134791 858.170232092353 880.8451627843469 783.2848622628859 924.9448955904221
          872.9003594768959 1140.1028226763826 858.170787044756 968.4784264590439 918.5266652574863 812.9389430725741
          800.6770169583567 898.6810078793142 1079.716713191197 889.6531708039824 916.5083382234903 907.9203109337952
          1092.3528918691588 952.9882466320583 1083.5669866818082 889.1205944722974 1075.2134737512647 922.7773934223328
          897.5704178035053 918.6612540688268 1115.5102354275616 941.0189826912272 918.7722467664366 941.4401756119561
          885.9864861745813 919.6425245755047 1067.8554837362021 937.2857771242568 1003.6813313469758 1004.6765209238889
          1017.0271175334857 941.5824452292875 1088.082778373014 852.6697818803452 925.558340704791 1014.7931085506015
          1066.2958145019934 1031.253466613997 910.2122067868889 908.372815294541 1067.8554847541923 937.2857560912876
          1003.6804490345412 1004.6679444332739 1017.0260328728783 941.5824432192429 1088.082778515984 918.6610239217038
          1115.510926838067 941.0189948380977 918.772246077777 941.4401721984085 885.9800031530692 919.6428435536375
          1092.3550020047455 952.9876695128326 1083.5669860514352 889.1205936481178 1075.21347473087 922.7778240161472
          897.5649826058482 1092.3556016871373 952.9875913141078 1083.5669852809003 889.1205946971833 1075.2134752618704
          922.7780727201243 897.5643874134046 918.660922108608 1115.5101152809864 941.0190155444493 918.7722468510382
          941.4401786182954 885.976338004014 919.6431409215137 1067.855484679723 937.2857409068691 1003.6782523750617
          1004.6726956284214 1017.0273789030447 941.5824400000996 1088.0827793646297 852.6697823129668 925.5583406094031
          1014.7930500153163 1066.2960082528325 1031.2533056583572 910.2122070565689 908.3728164328605 1067.8554843604386
          937.2857552832911 1003.6833851558515 1004.6719968054791 1017.0257521105349 941.582438424703 1088.0827791020247
          918.6612852283142 1115.5111203959198 941.0189963601896 918.7722461417583 941.4401774828706 885.990404561984
          919.6424982278285 1092.352303520518 952.9882764642604 1083.5669861629867 889.1205926099582 1075.213475602841
          922.7773752879311 897.5712727293097 812.9365158770639 800.6770529018993 898.68100771411 1079.716712583299
          889.6531716259669 916.5087379422602 907.9206260113789 783.2848909651349 924.9448824896137 872.9002627074416
          1140.1035944533169 858.1707854931528 968.4784825301336 918.5270580025389 901.4228828168058 878.2149650391372
          912.191832538467 1005.849430685706 903.73133181877 858.1705901069457 880.8451623757998 1070.6408547367414
          937.0073718950118 944.2636802395681 1051.5259935381976 966.5896095363787 914.1657035449376 1090.9912186726456
          901.4228838043737 878.2150848678789 912.1883015684512 1005.84410208538 903.7300740083638 858.1702227726882
          880.8451620563386 783.2848450622263 924.9448783309189 872.9004096238411 1140.1026720392563 858.1708287441115
          968.4782716619013 918.5267409926992 812.9413417322555 800.6769994411537 898.6810073825407 1079.716713111672
          889.6531707826572 916.5084248262216 907.922592902687 762.7063370167737 1018.3690115963765 944.622781684114
          816.39577855341 809.814984213624 1025.1563655165814 844.7958866412387 1019.7806749313027 1016.1825114671446
          1034.9146709287882 1014.960935212225 1014.7473701065963 1024.8369412758657 1023.2240234233337 857.9405719665903
          1081.9979615947539 985.4732436445639 973.155935716734 897.2948246308929 913.98763127929 961.7923820137871
          818.0433174346839 967.7199705091925 898.1802851684608 1090.3604374068532 1195.870626070637 927.4451468221041
          824.859845715342 857.9406084201 1081.9979972577746 985.4742717002156 973.1568173356317 897.2955686101161
          913.9877105926412 961.7920884275982 1019.7806790610158 1016.1886298509024 1034.9144058090294 1014.9579039373592
          1014.7472834777546 1024.8354059055039 1023.2240209722536 762.7031727965833 1018.3690074341437 944.6227944488912
          816.3951219287233 809.8148407177355 1025.1563679041174 844.7954139223359 969.6514165320896 871.6273721208867
          819.4860216814416 915.8462206660099 815.632327035499 786.7873669420002 996.9399349424106 895.2557457816541
          975.9029338184038 1049.9248748680586 1010.9131967057181 1034.4991420631247 882.4053814997869 894.4723499224212
          822.7979915423886 1041.757576360246 783.7334778910217 941.6320468962145 796.5277165700254 1041.8172140010058
          822.4163623343554 987.1147534420895 1032.088783781426 938.7037044471767 926.2886942902421 938.591994633786
          935.5565475003577 830.7759447107885 819.832327917018 1041.757579128186 783.7334731631694 941.6320477128183
          796.5277938676549 1041.817210614268 825.8680752819586 895.2557844576795 975.9030234810921 1049.9248723332062
          1010.9095940930882 1034.499139334634 882.4052224403846 894.4722703425457 969.6528288454556 871.6274123202303
          819.4861321500579 915.83252110195 815.6321505525601 786.7874824697205 996.9526893018519 1003.4095628009213
          1064.5213546451973 1013.501914659553 815.2333392229112 913.6833941091185 1089.9086031010465 1084.8236567341776
          955.8150051892454 763.0429430656205 1051.0999756963197 1082.5171508205713 882.3463405011124 800.4440867809176
          898.6599196590087 1054.9837091326704 1030.8885157465631 1090.2879503033955 1001.2506655592166 970.052953292447
          859.9962107622227 886.5759813192594 823.3584882741052 995.5139008910764 1089.0402819085164 790.611393558972
          933.6848028188498 1018.0159037557679 824.0517542390148 1054.9837542565065 1030.8884103565456 1090.2837984255832
          1001.2439896200078 970.0535745369139 859.991369939799 886.576111649586 955.8184162979959 763.042781726404
          1051.0946927826553 1082.5172222985238 882.34305308921 800.4440386417818 898.658385022677 1003.40809963294
          1064.5195800361282 1013.5020643384988 815.2330541392163 913.6825912268896 1089.9082373317567 1084.81405832281
          856.6259099384527 1060.7708557925234 593.8530067568988 1028.4889272297173 593.5285058099389 1053.881819587247
          976.135240219035 974.9272725735523 842.1398115950591 948.2776113852319 1133.2625181646429 1055.1983118122034
          1030.0599646993967 882.8746860532694 593.8251220195485 854.102941324259 956.1647079558867 588.1472822493321
          954.0546204411003 1021.9674728481555 593.5469535936757 939.8478892777566 1011.6158188035356 588.6459939014711
          999.0697778678478 587.683494482291 860.3373577553331 882.2460757461432 593.825121881866 854.103844299878
          956.1647082557442 588.1472820286826 954.0546195115459 1021.972775328264 593.5469535652365 974.9270834218013
          842.1397673096392 948.2779909717577 1133.2641337848665 1055.2052805075289 1030.0596005808804 882.8747782278355
          856.6259937009954 1060.7708512582567 593.8530066661716 1028.4884523023134 593.5285057873723 1053.8813833372153
          976.1363071577015 944.4694593094395 906.401546039757 1007.7375927174738 1054.4521569833976 1022.6258284050228
          901.6533564832293 1133.4281130453842 997.6367481170402 816.3756814783544 969.852058439374 966.0199639161516
          1029.6203634132357 863.7357595683043 1049.7513256419322 999.0179255327356 1034.206978808195 847.6538747479852
          734.6883344740122 1048.0616856405004 939.2918213754492 1041.4223842541114 963.5308811954291 1015.3446955578947
          772.1628570315399 1014.0405576295796 731.5196439655224 1022.5117109083398 982.9726925791703 999.0183186129456
          1034.206961482413 847.6488874258406 734.6853058330225 1048.0614639495973 939.2914109067498 1041.4220511410279
          997.6367296161243 816.37586655861 969.8518758566422 966.0201387551496 1029.6200963441388 863.7357302421332
          1049.7514243368025 944.4694712465707 906.4014972408977 1007.7375932362318 1054.4518326342773 1022.6258424986199
          901.653382743076 1133.4268119631824
        </DataArray>
        <DataArray type="Float64" Name="pressure" format="ascii" RangeMin="-49477.98068258857" RangeMax="23504.479782913077">
          -6663.752221590462 -11231.857562418072 928.5319620625114 6534.21434502804 2715.113132050883 -11801.56456231708
          16011.269746100606 -283.58874605701203 -22035.022785782097 -3617.752740938313 -4077.559869274105 3554.4321820350888
          -16351.736234661199 5970.163048523536 -117.82953467675725 4104.832430478782 -18281.280698713123 -31837.579547250712
          5767.38284192048 -7285.0058114425565 4970.666609723257 -4376.29166551545 1841.337573941746 -27340.45720209172
          1684.8660215681275 -32217.642403160135 2701.4138301745697 -2043.2798689420133 -117.82905873151776 4104.818478845291
          -18282.391295865695 -31837.583578458394 5767.387480400403 -7284.991282523315 4970.668222498643 -283.58264919738303
          -22034.90385445762 -3617.7657647128444 -4077.5979862662643 3554.434324326321 -16351.703526525085 5970.165234160368
          -6663.659085029317 -11231.818470224862 928.5130199904324 6534.241761808926 2715.1020236746353 -11801.596416788976
          16011.297410918814 -17204.87786009985 7292.486333927927 -48737.63929544904 3418.6228030425173 -48776.5792424863
          6465.790151291521 -2863.6355933888626 -3008.7759951262706 -18943.22028407081 -6206.585696282555 15991.57296636532
          6624.581508379124 3607.071737800661 -14055.0465310127 -48740.98533959642 -17507.604076828862 -5260.234999749578
          -49422.32622266032 -5513.4455952431335 2636.6746718577315 -48774.365575700336 -7218.250267691433 1393.8888438941012
          -49362.48073049158 -111.62665717295113 -49477.98068258857 -16759.523128213037 -14130.44625925425 -48740.985390797345
          -17507.57924418361 -5260.235000720058 -49422.32614439977 -5513.445589891689 2636.1468673886884 -48774.365579388825
          -3008.7267433480065 -18943.22621054846 -6206.725929557701 15991.627953233055 6623.805381797401 3607.1416751432207
          -14055.036828342472 -17204.899736198062 7292.502114732442 -48737.63919844051 3418.6568975041337 -48776.579300550264
          6465.791639433628 -2863.7605867572256 408.8657868865721 7742.430162618148 1620.2583542858474 -22171.985899165113
          -10358.045705210498 10788.991903489878 10177.960824350312 -5302.005489601065 -28434.903953717585 6131.80196329643
          9902.055552306501 -14118.877414740355 -23946.72403545295 -12160.89337370062 6598.097627526968 3706.4459099891974
          10833.995614466185 149.45919801060882 -3593.5559817214425 -16800.945419873296 -13610.86870494151 -21220.132312024885
          -538.3425604345211 10684.88804717791 -25126.60171145666 -7957.831947561353 2161.9147308910533 -20277.39328016711
          6598.049956502655 3706.7863327853956 10834.630169377706 149.88533285443737 -3593.6719527856712 -16800.510855526514
          -13610.89420151127 -5302.091000084388 -28434.859808881054 6131.529396341775 9902.067404127574 -14118.366994105887
          -23946.716008499898 -12160.910299917454 409.25591248004366 7742.499537768945 1620.220500005139 -22172.02300270605
          -10358.035075372763 10789.022371651045 10178.628502323081 -3641.554981752247 -15404.712978969446 -21661.682787523645
          -10100.178059713839 -22124.11487725746 -25585.4827067391 -365.9609167923509 -12569.288960258094 -2891.6313287648245
          5990.98451182851 1309.203274340266 4139.897058307652 -14111.319762088573 -12663.338615427738 -21228.59033556938
          5010.909171112962 -25951.98470599904 -7004.154199555387 -24416.652458263525 5018.065827318023 -20445.389423103232
          -1546.2327272650646 3850.6526069245047 -7355.555482679656 -8845.343770207623 -7368.960866962975 -7733.214785720352
          -20306.88451741114 -21663.3341912614 5010.909472121566 -25951.982865700724 -7004.154310770814 -24416.66238290618
          5018.065615184605 -20287.902108795093 -12569.30759589879 -2891.6419118795875 5990.98465765308 1309.5984033693503
          4139.896837911892 -14111.371700682503 -12663.331822937089 -3641.9225896711396 -15404.711828609867 -21661.66819588077
          -10098.353110036524 -22124.13539600386 -25585.499733563196 -366.98761807752817 -28475.16935955548 2204.280170299894
          -6645.255192551863 -22032.47498864727 -22822.254930644052 3018.763760135571 -18624.51870142563 2373.6818756995217
          1942.95460534428 4189.64866155472 1795.3408449636754 1769.6795660959015 2979.749071317183 2786.8829382090144
          -17047.111203314056 9839.784388482221 -1743.0523287462938 -3221.142493272191 -12324.541634502175 -10321.481105446019
          -4585.012380521148 -21806.964420459495 -3873.607702941549 -12218.372063360239 10843.214808432494 23504.479782913077
          -8706.578954905559 -20249.991347007253 -17047.12922369493 9839.758320305764 -1743.2375725663587 -3221.3204170941026
          -12324.622802197018 -10321.482389410203 -4584.954709605031 2373.681442648385 1941.6150080029684 4189.747627891347
          1794.9100689140187 1769.6729250590397 2980.898588099717 2786.882916595737 -28475.686237350925 2204.2808081397106
          -6645.265711651587 -22032.561226517337 -22822.22838750491 3018.7642580249576 -18624.51511542226 -22447.32670248256
          -23918.771806007735 -12158.278998798974 9566.005599065184 -13241.619496509029 -10019.057772880511 -11049.248770697192
          -26005.83088458371 -9006.611293562688 -15251.95821679154 16812.39644253289 -17019.508911261622 -3782.595706191123
          -9776.858232028671 -11829.253962753619 -14614.196961436455 -10537.45686583914 701.771405069926 -11552.241626705396
          -17019.54330753309 -14298.58048318446 8476.902529979961 -7559.1556826946135 -6688.3581330231345 6183.1485770338895
          -4009.2505555412663 -10300.124848219315 10918.946234065097 -11829.254299124495 -14614.193570668562 -10536.940379166299
          701.4502979514327 -11552.385790382508 -17019.572148917643 -14298.580465878367 -26005.81652845369 -9006.612529149348
          -15251.956862772491 16812.338721165914 -17019.50555462928 -3782.5888249147283 -9776.80016910164 -22447.326831291102
          -23918.757964997196 -12158.2790544823 9566.005582943635 -13241.619503522106 -10018.999413181158 -11049.562687944572
          11082.34702429906 -5641.410404152998 10028.038401816984 -13305.528663324312 9025.616850151764 -9266.712789320063
          -12291.549863579367 -9760.649511740785 13861.228251307393 -7077.72207705274 -9747.330388027603 -7027.178926565271
          -13681.621659050248 -9642.897050939437 8142.658048344256 -7525.706745089183 441.7597616370904 561.1825108666699
          2043.2541040182832 -7010.106572485502 10569.933404761678 -17679.62617435857 -8932.999115425078 1775.1730260721752
          7955.497740239207 3750.415993679644 -10774.535185573328 -10995.262164655072 8142.658170503073 -7525.709269045492
          441.65388414494373 560.1533319928649 2043.1239447453981 -7010.10681369085 10569.933421918086 -9760.67712939555
          13861.31122056804 -7077.720619428278 -9747.330470666757 -7027.1793361909795 -13682.399621631694 -9642.858773563503
          11082.600240569463 -5641.479658460094 10028.038326172218 -13305.528762225858 9025.616967704409 -9266.661118062339
          -12292.20208729822 11082.672202456479 -5641.489042307062 10028.03823370804 -13305.528636338007 9025.617031424445
          -9266.63127358508 -12292.273510391451 -9760.689346967038 13861.213833718366 -7077.718134666084 -9747.33037787542
          -7027.1785658045565 -13682.83943951832 -9642.823089418358 8142.658161566769 -7525.711091175704 441.39028500740096
          560.7234754105639 2043.2854683653613 -7010.107199988047 10569.933523755562 -17679.62612244398 -8932.999126871628
          1775.1660018379607 7955.520990339901 3750.39667900287 -10774.535153211731 -10995.262028056735 8142.658123252631
          -7525.709366005067 442.0062187021813 560.639616657495 2043.0902532641858 -7010.107389035638 10569.933492242963
          -9760.645772602293 13861.334447510371 -7077.720436777249 -9747.330462989008 -7027.17870205553 -13681.151452561926
          -9642.900212660585 11082.276422462164 -5641.406824288756 10028.038339558407 -13305.52888680502 9025.617072340929
          -9266.714965448264 -12291.447272482834 -22447.618094752328 -23918.753651772087 -12158.279074306796 9566.005509995894
          -13241.619404883968 -10018.951446928782 -11049.524878634533 -26005.813084183814 -9006.61410124635 -15251.968475107009
          16812.431334398025 -17019.50574082166 -3782.5820963839624 -9776.753039695337 -11829.254061983305 -14614.20419530354
          -10536.98009538396 701.9316822847213 -11552.240181747606 -17019.529187166514 -14298.580514904028 8476.902568408968
          -7559.1153725985805 -6688.358371251829 6183.119224583706 -4009.2468556345557 -10300.115574607484 10918.946240717469
          -11829.25394347516 -14614.189815854534 -10537.403811785862 701.2922502455967 -11552.391118996347 -17019.57326727741
          -14298.580553239368 -26005.818592532847 -9006.614600289737 -15251.950845139063 16812.32064471075 -17019.500550706616
          -3782.607400571842 -9776.7910808761 -22447.03899212934 -23918.760067061554 -12158.279114095121 9566.005573400653
          -13241.619506081137 -10018.989020853409 -11049.288851677557 -28475.23955798716 2204.2813915651777 -6645.266197906321
          -22032.506573590803 -22822.201894365116 3018.7638619897734 -18624.49360305136 2373.6809917563187 1941.901376057358
          4189.760511454579 1795.312225466996 1769.684412791562 2980.432953103882 2786.882810800048 -17047.13136400917
          9839.755391370463 -1743.2107626523293 -3221.287713991919 -12324.621044292853 -10321.4842464852 -4584.914158345546
          -21834.801907837933 -3873.6035388968958 -12218.365779784699 10843.252488822382 23504.475128476435 -8706.582381347507
          -21016.818514158964 -17047.126989587996 9839.759670932954 -1743.0873959741302 -3221.1819197241994 -12324.531766786067
          -10321.474728883059 -4584.949388688219 2373.6814873218964 1942.6355821082916 4189.7286970835285 1794.9484724831063
          1769.674017330558 2980.248708660465 2786.88251667043 -28475.61926441 2204.28089209724 -6645.264666133053
          -22032.58536855321 -22822.219113871743 3018.764148494083 -18624.55032931969 -3641.8300161492516 -15404.715345493601
          -21661.67739822701 -10098.45352007881 -22124.12075574012 -25585.515966959978 -367.20780691073287 -12569.310506201506
          -2891.647941791548 5990.984984167035 1309.5836046861677 4139.897047574968 -14111.354220025569 -12663.31800930945
          -21264.241014913372 5010.909163229526 -25951.982653077393 -7004.154372454254 -24416.67401159695 5018.065680120699
          -21310.03651987735 -1546.2295869492573 3850.6540537711135 -7355.555466338792 -8845.356685170946 -7368.960643945675
          -7733.2142999570715 -20306.886634705377 -21620.12064995784 5010.90949538233 -25951.983220419675 -7004.154274461798
          -24416.66473588142 5018.065273712173 -20895.830966164973 -12569.305865078459 -2891.6371822689507 5990.98467998474
          1309.1512911705877 4139.8967201560845 -14111.373307153848 -12663.327558894516 -3641.6605385453295 -15404.710521572364
          -21661.664141993057 -10100.097467766005 -22124.141933692787 -25585.502103633535 -365.677283777768 409.1475361105586
          7742.56255742368 1620.2297591463594 -22171.99929325065 -10357.992706905785 10789.032372125585 10178.838808101309
          -5302.199377290549 -28434.846832125535 6131.997083558363 9902.058098468551 -14118.43913986651 -23946.70958628989
          -12160.80964091896 6598.045095920443 3706.6218895875772 10834.554036407462 150.07986710599198 -3593.64560490636
          -16800.45470853327 -13610.882241688869 -21196.981407107378 -538.3318930708265 10684.833829021964 -25126.632772923353
          -7957.823661738025 2161.908450692149 -21113.78949131822 6598.050510780777 3706.609242785471 10834.055811069984
          149.27875440093885 -3593.571055570337 -16801.035607224116 -13610.866602049682 -5301.7900442404925 -28434.866192831523
          6131.3631339186395 9902.066675822862 -14118.8336292948 -23946.71536298618 -12160.993797278767 408.97195595279754
          7742.349604335386 1620.2477206198591 -22172.033503294046 -10358.089052773248 10788.988479810805 10177.686998737208
          -17204.89080738568 7292.502695102812 -48737.63918917214 3418.6712675660783 -48776.57930280733 6465.818350469644
          -2863.771173715795 -3008.7272911737273 -18943.22260859291 -6206.686633772169 15991.502179757144 6623.797417464411
          3607.1957639276025 -14055.037673607667 -48740.98535765418 -17507.647041088927 -5260.235045293598 -49422.32613008015
          -5513.445547067968 2636.096741778656 -48774.36556875892 -7218.253286669205 1393.8982564242724 -49362.48073182347
          -111.62665585825835 -49477.980662125075 -16759.51706936003 -14130.470910462813 -48740.985374176074 -17507.53868401464
          -5260.235009310691 -49422.32615655808 -5513.445658614496 2636.733039391679 -48774.36557217161 -3008.749989383846
          -18943.227922843296 -6206.641083389072 15991.696054183985 6624.633660903464 3607.152069705653 -14055.026612659745
          -17204.88075588055 7292.502150990804 -48737.639200059406 3418.6142762776035 -48776.579305515326 6465.766000465837
          -2863.6431410758223 -6663.664882867265 -11231.814475229157 928.5111260968597 6534.258838007709 2715.0994086027413
          -11801.597222012479 16011.373565446102 -283.59022595518127 -22034.918222597473 -3617.752987275121 -4077.6043300618085
          3554.4436095882884 -16351.708851803487 5970.159077031867 -117.84893607172762 4104.837456983387 -18281.535030241772
          -31837.399863118535 5767.402276860048 -7284.981434946094 4970.6861104933705 -4376.294256548513 1841.3634669473686
          -27340.457156215205 1684.8669155495463 -32217.642724137313 2701.40530900077 -2043.2768904995692 -117.80176644653238
          4104.835377889549 -18282.13350889913 -31837.763300037295 5767.375673951674 -7285.030691190027 4970.646136923342
          -283.5924460650858 -22034.896012966798 -3617.774897202935 -4077.583349382053 3554.411561296656 -16351.71237094402
          5970.1709204163035 -6663.663450411514 -11231.820331092276 928.5111883478112 6534.21991611327 2715.101099834392
          -11801.594070830879 16011.217435581893
        </DataArray>
        <DataArray type="Float64" Name="velocity" NumberOfComponents="3" format="ascii" RangeMin="3.0398995029091935" RangeMax="15.306747297486842">
          -2.5305232065486885 1.7676945543734788 -5.4531334112821925 0.6215812752004135 -0.9842367269289609 -4.833103822461861
          -0.139580639771359 1.4943116908372576 -6.5408883978374455 1.0487781892134533 0.6207988498978559 -6.209486008863724
          0.22342053626114683 0.6932133543731838 -5.935817737039756 0.42327246610692176 0.19768039020889983 -7.732177135498477
          -0.4356378741421609 -0.3109946391648428 -6.02612477706678 -0.8333726800368658 -2.0895333998378303 -5.785184963870324
          3.180256551303792 0.19894931354503867 -6.895564784525779 -1.5238210093083884 1.7300319153271395 -6.245443961208433
          -0.29862294485042984 -0.6814763007946009 -6.910299042550868 0.926891649770181 -0.15075478773114742 -4.5329735395228905
          -0.33246120313537014 0.06938989299088333 -5.911216795034623 -0.5118509428730071 0.08971265911091578 -6.673539618530229
          0.12797721878761964 -0.5242763774576167 -5.940473860305215 -0.1300366558343329 -0.34362904674655725 -5.69572418085869
          1.2098240038400936 -0.4244325981357813 -6.545119419700066 0.2555159552551621 4.0564334042760075 -6.837807273540043
          -0.17951476142228953 -0.47958655552371854 -5.6333598754686935 0.3219025436925306 -0.12134267458088842 -5.611455788030469
          -0.10132227513280279 -0.42931736956055555 -6.7593079800696625 0.995941929079714 -3.1188689256539e-7 -8.88448729596961