<?xml version="1.0"?>
<VTKFile type="PolyData" version="0.1" byte_order="LittleEndian">
  <PolyData>
    <Piece NumberOfPoints="396" NumberOfVerts="396" NumberOfLines="0" NumberOfStrips="0" NumberOfPolys="0">
      <Points>
        <DataArray type="Float64" NumberOfComponents="3" format="ascii">
          0.414170 0.419232 1.781041
          -0.517252 -0.010177 1.782803
          -1.032752 0.726423 1.749226
          1.000747 3.074979 -0.500000
          -0.294619 -0.852739 1.752673
          0.712854 0.338584 1.761157
          0.941433 3.131722 -0.500000
          -0.576486 -3.139377 0.132965
          -0.348310 0.149069 1.761559
          2.126045 -0.715019 1.572854
          -0.407530 -0.204323 1.757807
          -0.781987 -0.568120 1.966508
          0.731184 3.957230 0.244245
          -0.528176 0.079785 1.767002
          -0.021836 -0.804449 1.758642
          0.549899 3.990151 0.291259
          -0.290222 0.173460 1.760649
          2.160040 -0.644763 0.606845
          -0.463844 -3.109663 0.383372
          -0.824483 0.514417 1.752321
          -0.979497 1.036585 -0.500000
          -0.229124 -3.132287 0.420192
          0.205592 0.964597 1.741664
          2.169110 -0.647419 0.587299
          -0.391505 -0.887614 1.749126
          0.714998 3.989247 0.254937
          0.158228 0.931006 1.756873
          0.143027 -0.856267 1.749226
          -1.483210 3.562683 -0.500000
          -0.553257 0.630846 1.750015
          -0.297190 -0.865293 1.753903
          -0.793921 0.104420 1.739662
          -0.809627 -0.427370 2.081866
          -0.362412 -1.005388 1.749711
          -1.487153 3.513488 -0.500000
          1.136601 -3.303630 0.206403
          2.138038 -0.737329 1.620914
          -1.042060 0.550927 1.743994
          -0.763181 -0.533345 2.046436
          -0.278347 1.009913 1.682666
          -0.223503 -3.262783 0.287670
          -0.655815 -3.130789 0.429441
          -2.364539 -0.621924 0.449254
          -0.886337 -0.483275 1.903272
          1.231622 -3.359447 0.214175
          2.172176 -0.783090 1.483293
          0.019672 0.991199 1.730519
          -0.283848 -3.135632 0.164796
          -0.772765 -3.326857 0.360855
          0.298798 -0.086808 1.751426
          -1.448908 3.483194 -0.500000
          -2.399447 -0.570865 0.464050
          0.196432 0.852772 1.765141
          -0.292501 0.925996 1.750496
          -0.326337 0.406221 1.743809
          0.367946 0.425919 1.873337
          -0.870769 -3.242494 0.351379
          -1.004505 1.070058 -0.500000
          -0.429873 0.365169 1.741828
          -0.337715 0.305515 1.759258
          -2.456519 -0.586553 0.455441
          0.379054 0.232412 1.904681
          0.932510 2.063035 0.195368
          2.163892 -0.656233 0.586536
          -0.223001 -0.353461 1.787364
          -0.836081 0.633778 1.770356
          2.154846 -0.647341 0.602744
          0.078228 0.783475 1.745363
          -0.728372 -0.466018 1.949996
          -0.228467 -3.066963 0.305876
          -1.010609 0.518741 1.748123
          0.751006 3.869953 0.217838
          4.229983 -3.685986 1.298140
          0.331298 0.086620 1.750572
          2.094145 -0.698984 0.589316
          2.143823 -0.661775 0.586564
          -2.456645 -0.600895 0.443196
          2.062135 0.416770 -0.091052
          0.563961 0.080290 1.752643
          -0.451308 0.655389 1.730607
          0.743993 0.263453 1.770764
          -0.336903 0.029854 1.748208
          -1.524814 3.554654 -0.500000
          -0.943412 0.261928 1.751333
          0.206671 0.856061 1.749226
          -0.100950 -0.371337 1.753420
          0.711574 -3.211807 0.244923
          1.013556 2.185427 0.212905
          -0.329288 1.059281 1.699019
          -1.530961 3.542271 -0.500000
          0.742445 2.164592 0.213798
          1.167612 3.302596 -0.500000
          0.823982 2.199802 0.240597
          0.793883 -3.275276 0.291622
          -0.289033 0.020123 1.774218
          -0.218228 -3.042105 0.311261
          0.734596 0.643124 1.739566
          -0.768511 -3.373409 0.296044
          0.216164 0.855708 1.734699
          0.914168 0.484087 1.789413
          0.028725 -0.927598 1.751338
          -0.819637 -3.189866 0.235504
          1.249164 2.426194 1.431052
          0.744318 3.954366 0.210329
          2.131330 -0.814853 1.527122
          2.022767 -0.834037 1.458055
          -0.999714 1.046796 -0.500000
          2.053373 0.469985 -0.085763
          -0.650124 -0.430287 1.982840
          -0.842023 -3.237537 0.363390
          -1.014960 1.062469 -0.500000
          -0.753067 -3.245222 0.323881
          -0.519435 0.529325 1.741884
          -1.493092 3.525639 -0.500000
          -2.120720 -0.401590 -0.407249
          0.247520 -0.138167 1.773638
          -0.595878 -0.516192 2.062967
          0.132159 -0.332747 1.750585
          -0.230076 -0.285389 1.751032
          -1.024105 0.217951 1.749693
          -0.938907 0.152979 1.746909
          -0.860835 0.166812 1.749407
          -0.305092 0.552266 1.749226
          -0.326478 0.562412 1.755407
          -0.878392 0.196131 1.741952
          0.492712 0.322550 1.747290
          -0.787734 -3.179020 0.174188
          -0.369946 0.896368 1.734188
          -0.374790 1.010303 1.724681
          -0.255199 -3.011642 0.290105
          -0.995401 0.458780 1.750569
          0.330130 -0.271134 1.753091
          -2.470578 -0.585412 0.442717
          -1.461331 3.521246 -0.500000
          -0.426303 -1.109465 0.600744
          -0.429846 -0.865619 1.732783
          -1.002013 1.049698 -0.500000
          -0.461194 -0.125707 1.754452
          -0.364119 -0.183233 1.754099
          -0.355464 0.518464 1.751981
          0.128655 -0.857906 1.735633
          -1.032104 1.057222 -0.500000
          -0.741512 -3.154168 0.298896
          -0.415963 -1.017035 1.717546
          4.173315 -3.681233 1.296525
          0.054061 -0.779361 1.749226
          -0.769803 -3.133594 0.230559
          0.048025 -0.872630 1.749226
          0.989531 0.462404 1.843393
          5.757576 -1.482180 -0.002775
          0.749715 1.992278 0.144660
          2.127936 -0.863964 1.515424
          -0.426955 0.867908 1.749549
          -0.700744 -3.242458 0.175708
          0.301377 0.393058 1.794203
          1.089457 3.333814 -0.500000
          0.163961 -0.452077 1.776203
          -0.359490 -1.069396 0.672426
          0.709931 3.859998 0.228368
          0.422242 0.466396 1.755057
          -0.483325 -0.962367 1.730003
          -0.589633 -3.191640 0.330830
          -1.450349 3.505267 -0.500000
          0.696738 3.931677 0.210984
          1.011337 -3.361274 0.273851
          -0.789583 -0.401586 1.897034
          -0.041500 -0.842425 1.757327
          0.749944 2.108059 0.195043
          -0.835877 0.625272 1.772680
          2.121174 -0.756316 1.616514
          -0.418415 0.764645 1.744339
          0.750225 2.043390 0.239178
          1.232475 -3.388940 0.219160
          -0.438461 -1.081627 0.603014
          0.743243 3.955935 0.891147
          -0.989496 1.036378 -0.500000
          1.029414 2.132113 0.220649
          -1.502232 3.532961 -0.500000
          1.050639 -3.365209 0.292803
          2.032853 0.432125 -0.086867
          3.238755 -3.791163 0.871078
          0.298189 0.135327 1.731228
          -0.816808 0.055598 1.730889
          -0.403358 -1.075821 0.594968
          -0.297006 0.107770 1.766715
          0.754474 2.227485 0.167869
          -0.000046 -2.233101 0.308606
          -0.103609 -0.909455 1.752549
          -0.765952 0.601140 1.750957
          -0.354726 -0.767755 1.752095
          1.243086 -3.371338 0.251406
          3.168939 1.393745 0.274450
          0.724841 3.948513 0.182640
          -0.923495 0.610184 1.731656
          -0.290442 1.078321 1.705428
          0.723621 1.985136 0.171784
          -0.429190 -1.114195 0.618599
          0.764941 2.086240 0.226620
          1.029416 -3.412559 0.218498
          0.027375 -0.531700 1.744749
          -0.011201 0.819289 1.752035
          -0.094171 -0.425965 1.755482
          0.861490 3.122971 -0.500000
          -0.800262 -3.133844 0.304380
          0.000001 2.233027 0.308876
          -1.511446 3.568014 -0.500000
          0.356023 0.471631 1.760906
          -0.365862 -1.121219 0.599147
          0.670252 2.154154 0.219901
          0.943732 1.927290 0.190940
          2.360286 3.990728 0.158611
          0.455139 0.360452 1.794018
          -0.415498 -1.119254 0.597295
          -0.148757 -0.249446 1.752771
          0.163154 -0.829133 1.748957
          -0.198748 -3.173831 0.264588
          -3.317271 0.950709 0.121771
          -0.108598 -0.453785 1.749226
          -0.404311 -3.039434 0.281898
          -0.360657 -0.871320 1.749160
          0.749671 0.247903 1.803576
          -1.153214 -0.941025 -0.381370
          0.519532 3.983017 0.147327
          -2.449299 -0.659024 0.452525
          -0.404677 0.780055 1.750776
          1.216882 -3.283719 0.264156
          -0.823282 0.020306 1.749226
          -0.996158 1.059130 -0.500000
          -0.434285 -1.114923 0.601412
          0.133310 -0.332445 1.736179
          0.480371 3.948467 0.218542
          0.410480 0.368933 1.784555
          0.127324 -0.335067 1.748648
          -0.284489 -3.244461 0.246086
          0.987813 3.318281 -0.500000
          0.868052 0.470836 1.770160
          -0.279804 -3.220158 0.353129
          -0.430757 -0.042775 1.749887
          -0.369882 -1.078455 0.623330
          0.487463 3.924062 0.197921
          -1.019704 0.642639 1.753606
          -2.464402 -0.595838 0.440170
          -0.519880 -0.008227 1.781536
          0.570342 3.957951 0.195182
          -0.373583 -3.184937 0.248944
          0.023856 -0.688764 1.754330
          -3.321129 0.944828 0.106831
          1.110319 3.151650 -0.500000
          0.459720 3.930194 0.209260
          1.023783 3.132374 -0.500000
          -0.766313 -3.331793 0.290839
          -1.146113 -0.939419 -0.357698
          -0.845091 -0.445902 2.056894
          0.898211 -3.274477 0.208655
          1.059031 3.337780 -0.500000
          0.797204 0.504056 1.745583
          2.147180 -0.665169 0.594589
          0.981265 3.180716 -0.500000
          2.108091 -0.676931 1.489859
          -0.305827 -0.494381 1.750495
          0.190118 -0.309013 1.745598
          1.048320 3.269974 -0.500000
          -0.316674 -0.637602 1.755009
          0.991412 0.448583 1.831793
          -0.528779 0.516514 1.749237
          0.294106 -0.351558 1.749949
          0.334748 -0.039409 1.757921
          0.308026 -0.154581 1.749226
          -0.689443 -0.481043 1.938458
          -1.052161 0.668597 1.750489
          1.168937 -3.335569 0.213142
          0.514691 -0.105851 1.745935
          0.485815 -0.014375 1.740653
          0.748926 -3.231223 0.293694
          0.370568 0.226316 1.739589
          -1.086334 0.541003 1.737533
          2.121543 -0.802907 1.458781
          1.159664 3.297481 -0.500000
          -0.149862 -0.448080 1.757942
          -0.320306 -0.985001 1.747166
          1.087303 3.312752 -0.500000
          0.790807 0.262687 1.804615
          -0.359462 0.474123 1.736072
          0.874904 0.580532 1.767271
          2.101877 -0.664381 1.625314
          0.724755 0.236170 1.796521
          -0.372142 -0.348087 1.767417
          -0.219348 -0.571277 1.750091
          -3.271507 0.904940 0.066317
          0.649324 -3.258530 0.261317
          -2.114666 -0.373205 -0.389226
          -2.472237 -0.621247 0.427925
          2.189233 -0.627254 0.598906
          -1.176060 -0.932671 -0.375888
          -0.030098 0.929677 1.738568
          0.050612 0.909736 1.784093
          0.599420 -0.115538 1.750912
          -0.367200 0.139016 1.772797
          0.891332 3.118386 -0.500000
          0.689701 0.095088 1.736118
          -0.866488 -0.461620 2.011923
          -0.423319 -0.965552 1.731783
          -0.212836 -3.143261 0.375887
          -0.807190 0.585028 1.753890
          -0.423149 0.752723 1.738367
          1.162359 3.178977 -0.500000
          0.075582 0.927466 1.751994
          -0.983203 1.026966 -0.500000
          0.938854 2.008154 0.242551
          -0.528423 -3.068384 0.298549
          0.794509 0.308882 1.797963
          0.634575 -3.207963 0.246471
          0.286903 0.679388 1.736629
          1.205707 -3.390727 0.237042
          -0.382357 0.989011 1.732565
          0.396697 -0.057422 1.779396
          2.131974 -0.831716 1.463527
          0.638032 -3.202786 0.234434
          -3.303357 0.928977 0.087026
          0.987548 2.088911 0.223330
          -2.101208 -0.380605 -0.408121
          -2.115291 -0.403298 -0.407527
          2.150704 -0.689335 1.626785
          -1.127335 -0.929793 -0.363333
          -2.129344 -0.375190 -0.389031
          0.205506 0.755388 1.744847
          0.257236 -0.071430 1.752401
          0.443347 0.467646 1.784960
          0.712701 -3.145735 0.231368
          -0.491841 0.529133 1.749913
          2.166334 -0.715728 1.627853
          0.496978 3.857478 0.232264
          -0.559248 -3.101263 0.269297
          -2.103369 -0.388193 -0.406984
          -0.635768 -0.579290 2.003090
          0.760312 -3.137907 0.262219
          1.121316 -3.329911 0.264559
          -0.329532 -3.160808 0.299826
          -0.148818 0.955156 1.741065
          -0.415699 -1.109288 0.598445
          0.361246 -0.052978 1.750292
          -0.361209 1.059449 1.708681
          -0.926535 0.260906 1.752401
          -2.101928 -0.392248 -0.410527
          0.757106 -3.136916 0.232599
          -0.707987 -0.561621 2.000245
          -0.319893 0.402909 1.756112
          0.932579 0.456909 1.823416
          2.142361 -0.692890 1.568573
          0.484648 0.237633 1.818660
          0.507630 3.855927 0.193518
          -2.447318 -0.547574 0.465832
          -0.402193 0.745642 1.749603
          0.593149 -0.073662 1.781388
          -2.133073 -0.402932 -0.390426
          0.686780 0.559319 1.765513
          0.238494 0.008327 1.753770
          0.712665 -3.272952 0.291001
          0.394473 0.171707 1.843481
          0.789373 2.101951 0.274064
          -0.384771 -0.331928 1.752251
          0.162841 -0.387410 1.749064
          -0.769267 0.062133 1.749226
          -1.456118 3.539870 -0.500000
          -0.423488 -0.129159 1.773589
          -0.804252 0.587762 1.759485
          -0.996405 1.038378 -0.500000
          0.675464 -3.250987 0.271268
          -0.004860 1.005174 1.747191
          -2.426677 -0.665255 0.437067
          -0.425954 -0.995663 1.732286
          -0.984135 0.294334 1.751901
          0.934745 2.145953 0.186826
          0.040958 1.002278 1.750434
          -0.114289 -0.683881 1.750135
          1.031912 2.049079 0.179214
          -0.704627 -0.391859 1.961681
          -2.117813 -0.363074 -0.409766
          0.998731 -3.293934 0.169847
          1.096942 -3.420711 0.203187
          0.936554 3.045238 -0.500000
          0.890585 -3.303409 0.285124
          0.058972 1.043999 1.747342
          -2.412509 -0.641893 0.443158
          0.126413 -0.816792 1.749226
          0.534739 3.958402 0.198608
          -0.201581 -0.048826 1.771454
          0.105121 -0.168227 1.739136
          1.098936 3.048861 -0.500000
          -0.324526 -0.507527 1.768128
          -0.988624 0.674895 1.776027
          -0.884731 0.306696 1.731529
          -0.324479 -0.193556 1.765805
          0.163184 -0.804570 1.746663
          1.027892 3.098141 -0.500000
          -0.340967 -3.054216 0.431067
        </DataArray>
      </Points>
      <PointData Scalars="density">
        <DataArray type="Float64" Name="density" format="ascii">
          997.009878
          828.720986
          806.949803
          1057.448541
          1023.796185
          931.965927
          1065.564343
          687.727922
          887.517848
          1079.467443
          963.545095
          968.379126
          926.175849
          794.651910
          1018.280372
          946.711945
          820.226726
          732.701271
          909.837913
          1015.879795
          918.985718
          869.794632
          906.367639
          731.159838
          1013.378886
          914.301437
          1079.425332
          876.873443
          985.533980
          938.601861
          1032.267165
          804.534705
          831.777072
          901.974259
          995.412664
          1043.230789
          1038.502954
          971.169682
          971.809036
          876.555724
          770.431929
          796.098720
          899.341101
          743.392043
          925.630063
          1012.563394
          1026.937722
          811.436236
          839.109883
          1154.770157
          928.114645
          939.667202
          976.211265
          986.389893
          891.006660
          828.173277
          849.620771
          915.667902
          885.273722
          854.079713
          962.390491
          782.471814
          1065.784268
          732.001384
          995.152121
          969.860283
          728.913943
          920.425637
          1065.710172
          965.284506
          1027.371129
          814.499413
          500.000000
          1085.468383
          699.971745
          729.867238
          982.409887
          500.000000
          969.328017
          1051.960653
          847.099191
          1013.294788
          963.384418
          906.853011
          950.924619
          970.973667
          1049.786107
          687.395265
          813.883502
          969.645788
          975.551278
          851.775023
          982.394099
          1062.812137
          943.459415
          875.368617
          500.000000
          766.292162
          917.669886
          766.104918
          854.005418
          975.171342
          500.000000
          922.314152
          1043.157938
          811.629183
          923.187259
          500.000000
          887.830902
          922.374195
          920.212854
          1096.529635
          967.158341
          997.189126
          830.635497
          1104.291641
          731.243058
          951.365143
          1000.218650
          754.709048
          866.787617
          902.029937
          868.173611
          934.431563
          919.444501
          1081.885894
          886.026628
          998.835642
          865.865165
          859.064500
          1038.208991
          958.213880
          962.309903
          986.809478
          892.305964
          928.657228
          923.250018
          940.686449
          1016.539736
          1010.395751
          901.901912
          901.552957
          1099.418435
          822.791657
          500.000000
          1011.484119
          980.304438
          973.470239
          560.547083
          500.000000
          877.473514
          962.376818
          949.258130
          913.288122
          831.149910
          930.509010
          703.359375
          854.479416
          937.427850
          886.468905
          818.588839
          1018.837155
          976.508806
          1042.179100
          1026.249383
          878.645901
          992.483593
          1072.639290
          989.269882
          1046.583716
          1003.683449
          1014.181338
          902.537800
          888.526344
          500.000000
          921.058986
          762.906054
          995.123830
          1046.304331
          500.000000
          500.000000
          979.721542
          770.085345
          893.498041
          843.541502
          791.259413
          500.000000
          872.017164
          889.756238
          874.892396
          889.094589
          500.000000
          934.805944
          1106.113204
          739.281007
          864.641963
          898.559796
          1088.458502
          990.276524
          845.578097
          909.856628
          972.015638
          804.653197
          968.927753
          500.000000
          977.826715
          793.728048
          870.841605
          790.927514
          714.024181
          500.000000
          1069.281667
          891.889123
          841.618169
          838.042730
          893.447942
          500.000000
          957.044048
          967.841265
          1034.375566
          789.019310
          500.000000
          1004.887684
          957.793620
          1001.953767
          877.925877
          646.542846
          920.327268
          878.970542
          949.459896
          943.636595
          1036.675815
          942.291183
          858.236651
          973.214722
          842.260236
          945.524955
          1036.675261
          851.297549
          969.644228
          970.479355
          969.285464
          836.416524
          1125.099784
          1047.458742
          934.853805
          500.000000
          1119.184093
          911.794885
          1206.788143
          866.536085
          500.000000
          918.697864
          1023.493768
          944.877139
          803.227796
          733.249911
          1208.780326
          957.541745
          843.890327
          971.904115
          1144.073074
          751.553729
          623.449083
          938.922840
          815.128967
          1186.721123
          1141.297356
          991.606032
          856.032246
          1053.686720
          900.635044
          1064.907380
          1064.735536
          1041.712978
          832.089362
          980.902113
          942.198193
          980.067625
          929.484234
          1005.736470
          815.561763
          973.118690
          647.690217
          937.122024
          830.465478
          891.719626
          870.340508
          500.000000
          933.119021
          828.616784
          947.474734
          711.847202
          500.000000
          1057.764416
          1123.314180
          576.830443
          924.166563
          925.597332
          689.618272
          869.647117
          919.971271
          913.003476
          973.392378
          1002.536874
          1016.774875
          1151.585314
          911.194846
          914.996340
          904.249850
          837.707018
          914.344273
          539.736408
          985.621708
          891.124551
          1154.715146
          948.300436
          907.079390
          500.000000
          978.795281
          824.720277
          827.129188
          990.132840
          500.000000
          823.550524
          788.711938
          1098.832467
          894.957209
          957.281255
          991.954765
          1000.936047
          888.209793
          956.545774
          828.942010
          829.705477
          949.061873
          1084.372245
          1144.771801
          944.347443
          898.017868
          1186.802059
          746.584866
          929.140889
          829.197050
          931.600338
          980.034175
          890.564880
          735.489886
          1046.977949
          1093.704440
          966.753293
          932.387758
          1016.227045
          676.986955
          825.394986
          677.946587
          970.140905
          1013.806080
          1009.407943
          1053.135771
          884.765219
          867.116238
          699.184522
          984.350210
          1020.481231
          968.037157
          921.534735
          1000.548453
          999.586468
          937.938541
          902.657236
          862.741798
          1036.116805
          1035.194071
          915.163718
          766.829140
          886.024015
          827.563866
          973.783601
          1003.966765
          854.942422
          1014.359261
          922.507013
          950.913108
          929.605621
          1083.646706
          764.114121
          833.050141
          885.424178
          789.276720
          937.748226
          920.997152
          1033.881578
          822.527330
          1114.922033
          817.500269
        </DataArray>
        <DataArray type="Float64" Name="pressure" format="ascii">
          -89.703673
          -5138.370410
          -5791.505916
          1723.456216
          713.885539
          -2041.022193
          1966.930294
          -9368.162340
          -3374.464553
          2384.023299
          -1093.647138
          -948.626231
          -2214.724519
          -6160.442702
          548.411172
          -1598.641661
          -5393.198222
          -8018.961860
          -2704.862623
          476.393836
          -2430.428447
          -3906.161029
          -2808.970832
          -8065.204854
          401.366592
          -2570.956890
          2382.759947
          -3693.796706
          -433.980598
          -1841.944170
          968.014948
          -5863.958858
          -5046.687849
          -2940.772227
          -137.620090
          1296.923673
          1155.088606
          -864.909547
          -845.728918
          -3703.328270
          -6887.042144
          -6117.038393
          -3019.766967
          -7698.238710
          -2231.098123
          376.901819
          808.131658
          -5656.912929
          -4826.703512
          4643.104708
          -2156.560646
          -1809.983935
          -713.662059
          -408.303219
          -3269.800186
          -5154.801679
          -4511.376861
          -2529.962940
          -3441.788325
          -4377.608598
          -1128.285276
          -6525.845588
          1973.528044
          -8039.958487
          -145.436357
          -904.191518
          -8132.581710
          -2387.230885
          1971.305157
          -1041.464831
          821.133863
          -5565.017612
          -15000.000000
          2564.051494
          -9000.847637
          -8103.982873
          -527.703405
          -15000.000000
          -920.159490
          1558.819588
          -4587.024261
          398.843626
          -1098.467471
          -2794.409668
          -1472.261427
          -870.789978
          1493.583217
          -9378.142059
          -5583.494942
          -910.626363
          -733.461650
          -4446.749322
          -528.177042
          1884.364112
          -1696.217547
          -3738.941496
          -15000.000000
          -7011.235136
          -2469.903416
          -7016.852463
          -4379.837448
          -744.859741
          -15000.000000
          -2330.575449
          1294.738129
          -5651.124505
          -2304.382227
          -15000.000000
          -3365.072945
          -2328.774137
          -2393.614392
          2895.889035
          -985.249755
          -84.326226
          -5080.935095
          3128.749218
          -8062.708269
          -1459.045699
          6.559496
          -7358.728569
          -3996.371478
          -2939.101893
          -3954.791657
          -1967.053111
          -2416.664983
          2456.576815
          -3419.201161
          -34.930734
          -4024.045047
          -4228.065003
          1146.269739
          -1253.583594
          -1130.702905
          -395.715660
          -3230.821090
          -2140.283148
          -2302.499450
          -1779.406527
          496.192086
          311.872538
          -2942.942649
          -2953.411283
          2982.553062
          -5316.250304
          -15000.000000
          344.523579
          -590.866868
          -795.892841
          -13183.587504
          -15000.000000
          -3675.794569
          -1128.695457
          -1522.256101
          -2601.356337
          -5065.502709
          -2084.729702
          -8899.218749
          -4365.617526
          -1877.164497
          -3405.932858
          -5442.334843
          565.114656
          -704.735811
          1265.372987
          787.481496
          -3640.622964
          -225.492199
          2179.178707
          -321.903549
          1397.511467
          110.503465
          425.440138
          -2923.865993
          -3344.209676
          -15000.000000
          -2368.230430
          -7112.818390
          -146.285095
          1389.129945
          -15000.000000
          -15000.000000
          -608.353732
          -6897.439653
          -3195.058760
          -4693.754927
          -6262.217623
          -15000.000000
          -3839.485069
          -3307.312851
          -3753.228131
          -3327.162344
          -15000.000000
          -1955.821678
          3183.396126
          -7821.569777
          -4060.741111
          -3043.206115
          2653.755064
          -291.704275
          -4632.657086
          -2704.301166
          -839.530865
          -5860.404104
          -932.167420
          -15000.000000
          -665.198553
          -6188.158570
          -3874.751842
          -6272.174570
          -8579.274577
          -15000.000000
          2078.450016
          -3243.326323
          -4751.454920
          -4858.718095
          -3196.561729
          -15000.000000
          -1288.678565
          -964.762044
          1031.266968
          -6329.420694
          -15000.000000
          146.630512
          -1266.191415
          58.612995
          -3662.223680
          -10603.714626
          -2390.181957
          -3630.883740
          -1516.203114
          -1690.902147
          1100.274440
          -1731.264501
          -4252.900468
          -803.558335
          -4732.192925
          -1634.251353
          1100.257833
          -4461.073523
          -910.673149
          -885.619337
          -921.436083
          -4907.504275
          3752.993514
          1423.762260
          -1954.385865
          -15000.000000
          3575.522786
          -2646.153451
          6203.644280
          -4003.917451
          -15000.000000
          -2439.064087
          704.813042
          -1653.685836
          -5903.166131
          -8002.502683
          6263.409783
          -1273.747646
          -4683.290203
          -842.876564
          4322.192234
          -7453.388138