<?xml version="1.0"?>
<VTKFile type="PolyData" version="0.1" byte_order="LittleEndian">
  <PolyData>
    <Piece NumberOfPoints="396" NumberOfVerts="396" NumberOfLines="0" NumberOfStrips="0" NumberOfPolys="0">
      <Points>
        <DataArray type="Float64" NumberOfComponents="3" format="ascii">
          0.787290 0.151949 1.836380
          -0.695733 0.526795 1.848376
          -0.675629 0.411321 1.847950
          1.437957 3.920798 -0.500000
          -0.359285 -1.374732 -0.375093
          1.158953 0.325970 1.836096
          1.296397 3.827354 -0.500000
          -0.827536 -3.817778 -0.499593
          -0.548284 0.429949 1.839289
          2.843584 -0.972604 -0.455746
          -0.432522 -0.103771 1.840444
          -0.806619 -0.770845 1.844433
          1.135945 3.677961 -0.493391
          -0.630558 -0.002659 1.837512
          -0.373996 -0.865577 1.834076
          0.993907 3.697454 -0.492159
          -0.877030 0.691374 1.837771
          2.772161 -1.152363 -0.500000
          -0.591599 -3.914779 -0.500000
          -0.605016 0.221865 1.847248
          -1.186725 1.030249 -0.500000
          -0.174202 -3.860166 -0.491594
          -0.706081 1.387557 -0.500000
          2.779285 -1.161159 -0.500000
          -0.081273 -1.657849 -0.459045
          0.926586 3.493881 -0.493706
          -0.686941 1.298730 -0.500000
          -0.019338 -0.491174 1.843514
          -1.926340 3.666259 -0.500000
          -0.448447 1.341142 1.384879
          -0.271556 -1.233363 -0.384355
          -0.973279 0.621269 1.836674
          -0.496384 -0.487617 1.846397
          0.026008 -1.100143 -0.463634
          -1.918382 3.659471 -0.500000
          1.438744 -3.910487 -0.482436
          2.715070 -0.806027 -0.471034
          -0.762772 0.632156 1.847490
          -0.788028 -0.616904 1.835481
          -0.395938 1.060465 -0.284322
          -0.863625 -3.829013 -0.499826
          -0.388020 -3.991529 -0.500000
          -3.402614 -0.969327 -0.500000
          -0.424227 -0.900942 1.838377
          1.385802 -3.926195 -0.495691
          2.859534 -0.995587 -0.500000
          -0.367385 1.044749 -0.280078
          -0.353293 -3.815128 -0.496113
          -0.374848 -3.953210 -0.500000
          0.976686 0.231505 1.835372
          -1.918713 3.695779 -0.500000
          -3.462137 -0.998104 -0.500000
          -0.825075 1.363715 -0.500000
          -0.437553 1.179609 -0.197175
          -0.504487 1.277671 1.433406
          1.162372 0.455067 1.841389
          -0.942813 -3.873984 -0.499925
          -1.160850 1.062783 -0.500000
          -0.533676 1.268186 1.373907
          -0.759450 1.530102 -0.500000
          -3.405659 -0.975233 -0.500000
          0.374891 -0.238873 1.835976
          0.808581 2.742170 -0.499581
          2.529998 -0.959484 -0.500000
          -0.703358 -0.409678 1.837472
          -1.068244 0.777441 1.839799
          2.537757 -0.871908 -0.500000
          -0.907712 1.285653 -0.465387
          -0.822488 -0.666437 1.835664
          -0.130588 -3.942090 -0.491643
          -0.587419 0.484749 1.846842
          0.933260 3.433184 -0.490866
          3.958056 -3.281622 -0.424437
          0.239287 -0.179305 1.841019
          2.616096 -1.108216 -0.500000
          2.567015 -0.807809 -0.500000
          -3.395598 -1.020495 -0.500000
          2.261475 0.156424 -0.489911
          -0.219262 -0.304776 1.837543
          -0.439597 1.334203 1.365743
          1.176754 0.276965 1.835142
          -0.439231 -0.063502 1.836729
          -1.946218 3.676608 -0.500000
          -0.612672 -0.009117 1.843910
          -0.789693 1.219158 -0.500000
          -0.669295 -0.418745 1.840665
          0.776117 -3.862380 -0.486561
          1.038938 2.811720 -0.487379
          -0.308473 1.102476 -0.264439
          -1.876929 3.673550 -0.500000
          0.883143 2.692382 -0.450474
          1.374890 3.949682 -0.500000
          1.118525 2.602066 -0.499973
          0.766764 -3.882343 -0.493901
          -0.428725 -0.070746 1.836687
          -0.600044 -3.936845 -0.499417
          1.222906 0.276361 1.835959
          -0.155827 -3.772589 -0.500000
          -0.979708 1.368371 -0.483789
          1.229636 0.299504 1.835275
          -0.086947 -0.515334 1.836601
          -0.817593 -3.928849 -0.498566
          2.069355 2.312436 -0.405186
          0.835430 3.471127 -0.475224
          2.842885 -1.041613 -0.472312
          2.679538 -0.842556 -0.500000
          -1.172258 1.038990 -0.500000
          2.204748 0.154188 -0.478456
          -0.362949 -0.965153 1.836366
          -0.542957 -3.869724 -0.500000
          -1.177923 1.033655 -0.500000
          -0.849841 -3.997228 -0.498871
          -0.434307 1.327263 1.375804
          -1.933238 3.691140 -0.500000
          -2.154773 -0.332781 -0.500000
          1.156535 0.385426 1.836830
          -0.383133 -0.263521 1.835620
          0.052887 -0.542520 1.842276
          -0.616712 0.345239 1.838314
          0.065176 -0.531699 1.843073
          -0.692618 0.575793 1.848469
          -0.582375 0.432687 1.846867
          -0.498937 1.372943 1.388137
          -0.540662 1.314090 1.356223
          -0.484987 0.068862 1.836839
          0.264271 -0.159380 1.846832
          -0.847891 -3.902294 -0.497647
          -0.418008 1.053688 -0.330278
          -0.317974 1.131681 -0.313071
          -0.125129 -3.894471 -0.497322
          -1.013780 0.839470 1.837428
          0.018468 -0.607878 1.840579
          -3.408752 -0.973441 -0.500000
          -1.874700 3.671770 -0.500000
          0.066090 -1.073067 -0.476495
          -0.270756 -1.272330 -0.421135
          -1.173698 1.037980 -0.500000
          -0.814802 -0.537032 1.836944
          -0.445430 -0.161028 1.846992
          -0.387738 1.343757 1.370569
          -0.363964 -0.911754 1.836642
          -1.192040 1.035247 -0.500000
          -0.557392 -3.960984 -0.493409
          -0.199304 -1.499568 -0.429397
          3.906966 -3.311773 -0.321336
          -0.661907 -0.879278 1.837373
          -0.896955 -3.907208 -0.490244
          -0.202030 -0.417152 1.836746
          0.832441 0.221392 1.846938
          5.451452 -2.304631 -0.500000
          1.104147 2.566778 -0.485210
          2.813113 -1.029511 -0.500000
          -0.515316 1.151724 -0.307753
          -0.891147 -3.862309 -0.499268
          0.761549 0.056401 1.836484
          1.405087 3.914504 -0.500000
          0.746899 0.176765 1.848137
          0.010823 -1.152890 -0.490601
          0.970486 3.446989 -0.500000
          0.317591 -0.222854 1.844312
          -0.292803 -1.359361 -0.394539
          -0.330515 -3.871239 -0.500000
          -1.868414 3.702222 -0.500000
          0.812130 3.609559 -0.493991
          1.045388 -3.854843 -0.495579
          -0.605366 -1.003682 1.837366
          -0.630800 -0.946239 1.835872
          1.063227 2.535982 -0.485901
          -1.013154 0.842535 1.837158
          2.528420 -1.054965 -0.486815
          -0.938569 1.377377 -0.464764
          0.955166 2.810349 -0.496044
          1.372467 -3.943794 -0.490723
          -0.086538 -1.721742 -0.447558
          -1.058920 3.234801 -0.435515
          -1.200869 1.031758 -0.500000
          1.047767 2.565630 -0.493860
          -1.904452 3.676079 -0.500000
          0.728159 -3.932051 -0.500000
          2.210533 0.180602 -0.486656
          4.089824 -3.184429 -0.336290
          -0.356295 -0.580398 1.837996
          -0.786138 0.649475 1.848646
          -0.065445 -1.694814 -0.473793
          -0.931456 0.827006 1.846983
          0.939127 2.797390 -0.500000
          -0.278529 -1.438634 -0.424371
          -0.332018 -0.863497 1.834228
          -0.845452 0.625981 1.840900
          -0.107485 -1.257868 -0.413895
          1.117012 -3.892280 -0.475326
          4.694322 3.508176 -0.500000
          0.937077 3.389523 -0.499138
          -1.064540 0.792031 1.837295
          -0.316296 1.165758 -0.270738
          0.853287 2.703674 -0.487146
          -0.245672 -1.702553 -0.441471
          1.023532 2.806065 -0.492101
          1.156866 -3.904753 -0.482733
          0.383539 -0.043390 1.843026
          -1.007222 1.267477 -0.472778
          -0.753026 -0.521222 1.837382
          1.404426 3.941987 -0.500000
          -0.839556 -3.954077 -0.500000
          0.000001 1.579011 -0.500000
          -1.920474 3.649744 -0.500000
          0.288319 -0.137317 1.835660
          0.035745 -1.265043 -0.487168
          1.065429 2.819052 -0.488639
          0.905674 2.686185 -0.500000
          4.054625 3.619902 -0.401805
          0.247781 -0.127045 1.837257
          -0.054041 -1.624336 -0.444318
          -0.807130 -0.645943 1.837126
          -0.373432 -0.617625 1.836944
          -0.193443 -3.839000 -0.490848
          -3.102291 1.569046 -0.401120
          -0.610268 -0.371204 1.848131
          -0.821788 -3.971370 -0.500000
          -0.057917 -1.642832 -0.474024
          0.209427 -0.130402 1.838551
          -0.021256 -1.159934 -0.488618
          0.953413 3.409495 -0.492132
          -3.473949 -0.988410 -0.500000
          -0.555527 1.083154 -0.263520
          1.389680 -3.882644 -0.500000
          -0.785059 0.661452 1.848756
          -1.163559 1.035784 -0.500000
          0.141594 -1.175981 -0.478743
          0.018502 -0.493938 1.842246
          0.842886 3.612229 -0.493056
          0.662561 -0.076738 1.834047
          -0.390936 -0.515880 1.836716
          -0.169992 -3.959472 -0.497441
          1.022038 3.818356 -0.500000
          1.190075 0.310913 1.836147
          -0.189126 -3.912426 -0.491759
          -0.512769 0.145699 1.845944
          -0.041959 -1.658038 -0.467141
          0.792388 3.495175 -0.466931
          -1.027256 0.727641 1.836160
          -3.425173 -0.974274 -0.500000
          -0.615109 -0.258966 1.845531
          0.825645 3.558771 -0.489912
          -0.965697 -3.887260 -0.494500
          -0.441904 -0.912922 1.835375
          -3.086823 1.571398 -0.409310
          1.276511 3.900428 -0.500000
          0.793331 3.570981 -0.472665
          1.399140 3.912037 -0.500000
          -0.575735 -3.937454 -0.500000
          0.108299 -1.101120 -0.487131
          -0.598753 -0.777363 1.850450
          1.086284 -3.895817 -0.496943
          1.334295 3.927399 -0.500000
          0.945846 0.221825 1.844987
          2.668200 -0.858313 -0.500000
          1.047033 3.779124 -0.500000
          2.595591 -0.943141 -0.341379
          -0.650603 -0.504531 1.840129
          -0.454132 -0.543622 1.833495
          1.396590 3.867022 -0.500000
          -0.440364 -0.851972 1.836488
          0.624069 -0.056492 1.831286
          -0.540436 1.281764 1.360940
          -0.024905 -0.526919 1.847343
          0.820154 0.225301 1.846613
          -0.695001 -0.671262 1.838725
          -0.777019 -0.673910 1.835288
          -1.051891 0.763670 1.838136
          1.372266 -3.916835 -0.500000
          0.881768 0.095200 1.836699
          0.755843 -0.017955 1.836645
          0.822699 -3.877755 -0.500000
          0.783695 -0.040374 1.836658
          -0.512475 0.117519 1.845835
          2.736099 -0.864856 -0.386878
          1.054284 3.828759 -0.500000
          -0.790999 -0.518949 1.834502
          -0.248539 -1.362804 -0.416786
          1.078318 3.791276 -0.500000
          0.831793 -0.069810 1.842150
          -0.496513 1.247781 1.368633
          1.233559 0.437516 1.838212
          2.846349 -0.987641 -0.500000
          0.919272 0.186877 1.836718
          -0.156114 -0.456501 1.847114
          -0.389200 -0.440719 1.846554
          -3.112147 1.585245 -0.405640
          0.811546 -3.878749 -0.494048
          -2.164674 -0.331010 -0.500000
          -3.400009 -1.012981 -0.500000
          2.476372 -0.876145 -0.500000
          0.108237 -1.171037 -0.475738
          -0.315729 1.183433 -0.307793
          -0.991520 1.318568 -0.483623
          0.949190 0.235524 1.837300
          -0.563571 0.073916 1.838806
          1.444011 3.942553 -0.500000
          -0.573664 -0.206828 1.846754
          -0.604183 -0.987993 1.845599
          0.113999 -1.130651 -0.491478
          -0.648213 -3.993643 -0.488710
          -0.791519 0.614135 1.848317
          -0.751732 1.393024 -0.479866
          1.020303 3.769782 -0.500000
          -0.906983 1.382900 -0.425827
          -1.191009 1.040525 -0.500000
          0.960875 2.776532 -0.500000
          -0.204758 -3.993929 -0.500000
          1.218481 0.475109 1.839851
          1.123951 -3.940664 -0.486820
          -0.341992 1.137566 -0.298860
          1.357691 -3.928829 -0.500000
          -0.508848 1.133530 -0.296238
          0.912308 0.004025 1.835414
          2.680773 -1.100197 -0.460441
          0.797060 -3.835971 -0.500000
          -3.124963 1.589637 -0.403022
          0.972970 2.609477 -0.497967
          -2.167356 -0.328605 -0.500000
          -2.171461 -0.327216 -0.500000
          2.543503 -1.005579 -0.437508
          0.052738 -1.246194 -0.486197
          -2.166932 -0.328591 -0.500000
          -0.876291 1.241240 -0.465155
          1.246402 0.419615 1.833021
          0.279946 -0.214813 1.845146
          0.798782 -3.876828 -0.459643
          -0.454046 1.376862 1.405269
          2.535298 -0.955279 -0.456863
          0.841360 3.539838 -0.490742
          -0.124089 -3.902551 -0.499562
          -2.168092 -0.331485 -0.500000
          -0.632657 -0.998619 1.838902
          0.764389 -3.871831 -0.487020
          1.320656 -3.971359 -0.492211
          -0.476595 -3.971988 -0.479506
          -0.686153 1.361623 -0.453406
          -0.373665 -1.335322 -0.335979
          0.260641 -0.187895 1.836466
          -0.464197 1.086727 -0.266096
          -0.421458 -0.097813 1.837410
          -2.169083 -0.325070 -0.500000
          0.855541 -3.916725 -0.495355
          -0.695111 -0.916610 1.843532
          -0.454061 1.255363 1.398113
          1.240497 0.408862 1.836789
          2.592221 -1.155149 -0.482147
          0.386252 -0.241777 1.839887
          0.895114 3.705029 -0.497825
          -3.441250 -1.041168 -0.500000
          -0.841893 1.233553 -0.444439
          0.386162 -0.220304 1.836706
          -2.173765 -0.338438 -0.500000
          0.586037 -0.123018 1.836277
          0.600842 -0.078149 1.834797
          1.067180 -3.905300 -0.494534
          0.764152 -0.007772 1.836716
          1.154242 2.602880 -0.492719
          -0.209970 -0.471049 1.846492
          0.040326 -0.564049 1.841646
          -0.544810 0.423951 1.846937
          -1.915523 3.684586 -0.500000
          -0.559148 -0.115978 1.836912
          -0.711603 0.354826 1.847972
          -1.173678 1.019293 -0.500000
          0.796926 -3.895744 -0.487636
          -0.416638 1.217995 -0.287325
          -3.468360 -0.983415 -0.500000
          -0.061551 -1.204061 -0.459925
          -0.581363 0.494999 1.847634
          1.071098 2.744721 -0.499933
          -0.763456 1.476386 -0.481976
          -0.353514 -0.421978 1.845002
          0.872404 2.627615 -0.487681
          -0.361231 -0.596815 1.837644
          -2.166899 -0.327430 -0.500000
          1.384563 -3.922155 -0.495261
          1.354091 -3.874003 -0.497052
          1.089057 3.779426 -0.500000
          1.096732 -3.914388 -0.496700
          -0.772596 1.246323 -0.417702
          -3.386656 -0.989180 -0.500000
          -0.609021 -1.021992 1.794647
          0.908485 3.422345 -0.493202
          -1.097374 0.737929 1.838365
          -0.011141 -0.557975 1.844140
          1.130955 3.775490 -0.500000
          -0.755431 -0.783010 1.837578
          -0.984315 0.828525 1.836182
          -0.566774 0.264402 1.847536
          -0.487333 -0.237383 1.847166
          -0.371199 -0.964479 1.836907
          1.407504 3.957225 -0.500000
          -0.262912 -3.838686 -0.486149
        </DataArray>
      </Points>
      <PointData Scalars="density">
        <DataArray type="Float64" Name="density" format="ascii">
          1061.271143
          1077.709523
          1015.286923
          915.148630
          618.507002
          1020.240985
          1020.128334
          954.387928
          943.641411
          912.125410
          1000.337786
          886.994412
          867.567297
          834.580381
          915.532527
          1147.646904
          1090.675397
          813.357441
          954.352229
          892.071787
          943.088933
          1026.548792
          967.677378
          776.045195
          656.967909
          1139.822381
          918.787726
          954.255950
          1003.050906
          1012.839711
          678.999027
          914.070359
          1040.652459
          911.522784
          1002.150856
          823.010998
          836.458670
          997.126328
          1011.530457
          1038.362930
          929.948882
          965.902134
          988.798443
          1052.169972
          929.042818
          852.913629
          963.557859
          975.882396
          1056.926853
          980.486217
          1003.942368
          973.132525
          1164.613877
          920.438272
          974.900539
          818.219310
          845.968681
          968.758854
          981.003896
          609.267802
          990.497850
          936.778735
          802.190655
          1055.362350
          880.261867
          938.563811
          979.478356
          1101.169298
          918.588360
          930.772886
          981.287947
          1007.353840
          500.000000
          942.472511
          1038.397273
          853.195151
          968.061015
          500.000000
          645.658468
          1005.477407
          943.924269
          1015.430070
          988.214627
          919.025672
          974.358774
          973.179913
          963.221117
          1009.613192
          961.414541
          991.613257
          1088.469328
          973.535421
          901.551553
          956.605801
          999.449263
          958.040818
          908.432178
          761.372550
          865.324125
          931.655494
          1028.283401
          1094.753314
          500.000000
          1059.904120
          878.445110
          1007.753088
          959.259508
          500.000000
          856.650573
          872.211472
          954.271859
          943.662719
          1008.881869
          997.599362
          834.410278
          1006.278955
          950.749325
          849.949056
          990.024603
          847.022113
          1028.119063
          1001.114555
          991.400952
          974.884883
          941.546017
          993.840823
          1073.522955
          1003.381626
          981.555876
          949.406960
          933.290348
          809.999862
          985.275711
          990.872252
          890.094395
          743.130649
          958.803572
          900.626278
          1033.485416
          905.976049
          916.724139
          946.689313
          933.681313
          736.023405
          500.000000
          1062.592520
          1005.618079
          958.292686
          945.473998
          500.000000
          845.883749
          1011.345987
          981.215498
          988.193597
          1108.692547
          972.856652
          946.525778
          959.923401
          998.978016
          981.463665
          745.944119
          1115.384852
          974.162496
          1041.387455
          921.291191
          937.344962
          1011.192210
          773.128471
          900.070893
          956.327221
          984.547271
          1087.399135
          958.753570
          581.970927
          500.000000
          938.106580
          976.605818
          1008.834921
          836.388833
          500.000000
          500.000000
          924.726647
          1016.313285
          629.415891
          975.514613
          1084.496847
          739.069715
          823.911139
          1052.336188
          897.159940
          938.630937
          500.000000
          909.297127
          929.538335
          943.946012
          971.052353
          500.000000
          1058.622034
          971.435787
          792.543389
          940.622063
          1011.423911
          952.791855
          1046.233029
          500.000000
          996.988427
          1001.345315
          851.996407
          910.334167
          1152.450764
          500.000000
          928.899714
          683.691923
          973.420838
          898.479247
          1022.758052
          500.000000
          967.522716
          1023.168433
          643.410851
          866.970761
          955.955991
          901.001358
          962.470072
          802.782276
          915.544979
          1007.123251
          958.457064
          859.716102
          907.688698
          1119.085596
          842.353039
          988.859157
          972.157181
          902.521750
          1004.901245
          1073.044390
          896.567866
          594.106057
          966.978140
          1011.953667
          989.898850
          888.297448
          1111.770672
          833.888190
          1060.852998
          500.000000
          1042.557099
          1012.767626
          980.564506
          952.626541
          885.514618
          1119.744808
          932.822035
          1020.311389
          977.822158
          1106.577424
          1004.113822
          906.528783
          1072.045482
          977.878205
          960.207541
          1077.049510
          827.436681
          955.031787
          986.190904
          917.285604
          1103.071469
          1026.371565
          966.792286
          956.361162
          1066.665627
          1017.570108
          1026.989590
          990.468900
          910.763547
          894.960113
          899.692680
          922.752963
          784.006014
          985.065910
          842.733903
          985.210868
          864.953605
          892.009775
          1017.459380
          1016.015462
          1029.674500
          500.000000
          1017.398796
          834.458567
          984.844702
          787.507326
          899.985106
          938.828941
          932.936461
          963.044681
          961.522849
          915.759470
          986.467523
          977.317199
          853.476856
          929.455829
          1032.270189
          1045.106384
          1014.561278
          1035.628738
          950.423213
          1162.382283
          950.036410
          845.101155
          921.804627
          1036.242647
          965.228258
          985.107968
          889.154165
          1109.500772
          963.522119
          500.000000
          1123.509629
          835.060936
          835.083108
          1066.768012
          913.399831
          835.288148
          1061.401545
          879.997520
          991.598817
          989.931472
          967.625998
          1108.802984
          1118.003415
          931.706477
          835.072717
          874.921491
          938.568926
          990.472886
          919.424681
          894.058013
          567.892948
          995.040520
          1026.994026
          986.235436
          834.428671
          1046.545541
          949.231035
          977.697042
          902.775703
          801.649076
          913.676850
          1048.674679
          955.056848
          1047.130426
          994.667160
          834.060740
          759.988003
          806.540459
          938.687829
          1032.751336
          820.897085
          1025.567308
          858.290181
          931.089161
          1007.498293
          1022.321486
          873.354874
          945.390742
          996.343854
          978.405840
          963.800109
          925.411927
          963.704733
          1116.122600
          845.529332
          1011.395272
          947.870242
          917.425996
          834.732373
          948.849282
          968.185835
          996.472881
          932.869730
          1007.582637
          974.792820
          867.292499
          1003.054273
          855.287915
          939.320999
          988.500923
          970.949920
          952.079134
          925.367413
          1045.830512
          822.272042
          933.354071
          1064.603922
        </DataArray>
        <DataArray type="Float64" Name="pressure" format="ascii">
          1838.134288
          2331.285695
          458.607683
          -2545.541090
          -11444.789952
          607.229549
          603.850012
          -1368.362153
          -1690.757658
          -2636.237708
          10.133592
          -3390.167633
          -3972.981101
          -4962.588583
          -2534.024190
          4429.407124
          2720.261899
          -5599.276769
          -1369.433121
          -3237.846404
          -1707.332023
          796.463772
          -969.678669
          -6718.644162
          -10290.962721
          4194.671427
          -2436.368216
          -1372.321487
          91.527182
          385.191321
          -9630.029197
          -2577.889222
          1219.573768
          -2654.316476
          64.525693
          -5309.670060
          -4906.239909
          -86.210159
          345.913715
          1150.887910
          -2101.533543
          -1022.935972
          -336.046704
          1565.099161
          -2128.715452
          -4412.591117
          -1093.264243
          -723.528121
          1707.805599
          -585.413480
          118.271028
          -806.024258
          4938.416305
          -2386.851853
          -752.983822
          -5453.420698
          -4620.939561
          -937.234386
          -569.883129
          -11721.965949
          -285.064494
          -1896.637961
          -5934.280342
          1660.870497
          -3592.144000
          -1843.085676
          -615.649323
          3035.078937
          -2442.349202
          -2076.813423
          -561.361581
          220.615189
          -15000.000000
          -1725.824682
          1151.918196
          -4404.145469
          -958.169549
          -15000.000000
          -10630.245956
          164.322218
          -1682.271927
          462.902112
          -353.561176
          -2429.229825
          -769.236770
          -804.602615
          -1103.366494
          288.395750
          -1157.563761
          -251.602279
          2654.079853
          -793.937378
          -2953.453413
          -1301.825969
          -16.522119
          -1258.775466
          -2747.034665
          -7158.823508
          -4040.276241
          -2050.335185
          848.502043
          2842.599421
          -15000.000000
          1797.123610
          -3646.646700
          232.592642
          -1222.214758
          -15000.000000
          -4300.482800
          -3833.655848
          -1371.844241
          -1690.118417
          266.456077
          -72.019143
          -4967.691663
          188.368662
          -1477.520254
          -4501.528327
          -299.261905
          -4589.336605
          843.571894
          33.436641
          -257.971449
          -753.453515
          -1753.619504
          -184.775313
          2205.688646
          101.448776
          -553.323722
          -1517.791211
          -2001.289546
          -5700.004139
          -441.728663
          -273.832451
          -3297.168146
          -7706.080538
          -1235.892828
          -2981.211648
          1004.562478
          -2820.718538
          -2498.275822
          -1599.320603
          -1989.560611
          -7919.297856
          -15000.000000
          1877.775602
          168.542380
          -1251.219429
          -1635.780049
          -15000.000000
          -4623.487537
          340.379615
          -563.535065
          -354.192102
          3260.776397
          -814.300433
          -1604.226660
          -1202.297969
          -30.659511
          -556.090055
          -7621.676434
          3461.545568
          -775.125112
          1241.623638
          -2361.264267
          -1879.651125
          335.766286
          -6806.145859
          -2997.873214
          -1310.183363
          -463.581865
          2621.974049
          -1237.392902
          -12540.872176
          -15000.000000
          -1856.802586
          -701.825465
          265.047618
          -4908.335012
          -15000.000000
          -15000.000000
          -2258.200590
          489.398537
          -11117.523268
          -734.561615
          2534.905423
          -7827.908548
          -5282.665838
          1570.085655
          -3085.201806
          -1841.071877
          -15000.000000
          -2721.086178
          -2113.849942
          -1681.619628
          -868.429396
          -15000.000000
          1758.661019
          -856.926397
          -6223.698343
          -1781.338110
          342.717330
          -1416.244360
          1386.990883
          -15000.000000
          -90.347195
          40.359456
          -4440.107799
          -2689.974985
          4573.522907
          -15000.000000
          -2133.008568
          -9489.242321
          -797.374874
          -3045.622598
          682.741547
          -15000.000000
          -974.318520
          695.052989
          -10697.674462
          -3990.877182
          -1321.320278
          -2969.959264
          -1125.897852
          -5916.531727
          -2533.650640
          213.697520
          -1246.288068
          -4208.516935
          -2769.339047
          3572.567885
          -4729.408829
          -334.225289
          -835.284558
          -2924.347512
          147.037339
          2191.331708
          -3102.964027
          -12176.818275
          -990.655808
          358.609996
          -303.034502
          -3351.076552
          3353.120169
          -4983.354294
          1825.589939
          -15000.000000
          1276.712960
          383.028781
          -583.064814
          -1421.203772
          -3434.561473
          3592.344228
          -2015.338955