<?xml version="1.0"?>
<VTKFile type="PolyData" version="0.1" byte_order="LittleEndian" header_type="UInt32" compressor="vtkZLibDataCompressor">
  <PolyData>
    <Piece NumberOfPoints="686" NumberOfVerts="686" NumberOfLines="0" NumberOfStrips="0" NumberOfPolys="0">
      <PointData>
        <DataArray type="Float64" Name="density" format="ascii" RangeMin="500" RangeMax="1119.068808330022">
          999.3431614639296 760.8437492919129 1000.0000000021226 1005.2271837873291 999.9513254113707 831.8558386032387
          1000.000019865683 1006.9657787031717 1000.0173770869122 990.4110502332819 999.6178684706251 1000.0258378824667
          1008.895906374298 1000.1794111151145 1000.9705281205511 1006.5661794744118 1000.0380218963217 990.1366826460934
          999.9999968285259 1000.3070010232237 1000.1522218339775 1000.0713834638428 968.3910330317184 1005.4441225969675
          1000.0011831361694 1002.6064980469812 999.9996529281326 990.1001518012534 998.084246686485 1006.9473573067032
          1000.9583119860075 1002.2312574962725 1000.0164247579743 1002.8457007159326 1000.4789922673411 999.9569739839403
          999.980767728279 984.1816336654636 1000.0495185239248 797.6582143006129 988.9198995048419 1000.3671141387163
          1006.2809011188594 999.9851533106344 693.8056109316977 1000.3250885962252 999.9803187173119 999.3903341453209
          999.9999706401585 1000.0000000000008 1000.1408875165861 617.8813178009802 999.9999955492908 619.2389841886866
          999.9999851872565 999.9999999999997 799.9382926186995 1000.0000000000003 991.5942789430019 1000.6143835390498
          831.9084981115227 999.9999999999997 1001.4906988104407 999.9999999999991 998.2417702447262 999.9999999999999
          619.2389837953976 999.9999999999998 999.999862950072 999.9999999999994 776.7843809018962 1000.0278498302176
          999.9999999999981 1000.0000000000009 1000.0000000000061 1000.0009348023311 1000.0141949408754 999.999999999999
          999.999186493512 999.9999999999999 500 999.9999999999999 679.6143962587817 999.9999999999994
          1000.2239720535268 995.7568971449055 1000.0011448858822 967.872879945304 831.052486000966 999.999573192352
          969.8847291457299 1002.5063811294565 1000.7741562435793 500 1000.0012199375357 500
          999.6494936914364 999.9992928576057 1022.1551815473961 1000.0833702833423 1000.0049511515617 831.4443085124428
          980.717702274831 1000.026442584724 999.9999983260976 999.9999999979146 831.0286252328921 997.9155085520763
          979.8296916297554 1000.0577103344597 1000.000000000001 1000.0885806386866 999.9999747108988 999.9999999999991
          999.0131344946859 1000.0000269951183 1000.0009339686835 1000 991.5595409521032 831.3204335711588
          1000.0761058876004 1000.0000125638068 999.9878777505534 994.9838695022743 1000.068317740562 831.2389682103766
          1003.5213911997173 999.9989334845642 991.5808185109602 1000.0000357442431 831.5315924234529 999.9992286749185
          1000.0028292445473 999.9939979737208 831.3286367872975 999.9999954263594 758.816635737608 1000.0012887502645
          999.998129781576 1002.3664871357248 1001.0994316164345 1000.0063195320023 999.9993927039509 831.5054907315617
          990.7064076456819 997.0409650154222 737.585009407902 999.0808615680045 1000.0000000000052 831.4443085124428
          1001.9247837081144 831.0868013339049 1000.0000000000061 999.9999999999995 999.9999999999936 999.9999999999968
          999.9999999999999 1000.3269031016299 1000.0000000000014 999.9999999999999 999.9999999999999 831.2004516480692
          999.9999999999999 831.0286252347729 999.9999999999994 999.999999999999 999.999999999999 831.2805775401251
          998.3523033723399 999.1846737763217 500 1000.0019971250338 1013.8023920982461 1000.593309599429
          999.9999864806402 831.3204335711588 1000.0000000000006 831.3286367872976 1000.0000000000001 999.9998075100538
          999.9999999999986 831.2389682103816 1002.72119088317 999.9442810116658 1000.0000000000015 500
          1000.0000000000011 999.9995121481337 999.9981360990032 999.9991273827636 1002.7930971175691 831.5054907315617
          978.5719461335759 831.0289215034485 999.9995682441337 999.9992553838806 999.999999999999 999.4201078859952
          1000.000000000003 831.0868013339049 999.9999999999957 999.9999999999977 1000.0000000000005 1000.0000000000001
          1002.9720569008007 994.6491296901492 1005.9313233843673 831.8411019774269 831.0524860009501 1000.0000000000011
          999.999999999999 739.1386315315306 999.9999999999999 997.6327386440955 1000.0000000000009 999.9535210702074
          999.9999999999995 831.2004516480692 918.9570093905386 995.8887645386939 996.023834987005 999.6561933010997
          995.4101002152065 831.2805775401183 984.6688921151863 860.9947911528163 994.848730662782 1000.5101757383754
          999.9999999999997 1047.5661434185517 1000.0002756729319 999.9999999999993 1000.0450420894954 1000.0008099286463
          998.3669514328864 1000.0212037668199 1000.0000013091626 1000.0000000000008 1000.0001006714649 999.9999999999995
          1002.2158733487707 831.0289215034485 999.9981465765146 999.9999999999984 1000.0004428801435 1000.0530228496325
          831.5057781602318 999.9999999999981 999.4734892078845 999.9999999999992 1000.0000000000024 999.9991794826307
          831.5057781585696 999.9999999999995 1000.0000000000013 999.8437660436811 1000 1000.0000000000007
          999.9999999999976 980.6519669224382 1000.0000000000003 999.9999999999998 1003.0061382602076 1000.0000000000008
          999.999999999999 951.4737401716139 999.9999898163531 1000.4649729737054 761.987712756143 1003.022578142034
          1000.0022155327873 999.9851271578149 1009.3220169319342 868.7203692126733 1000.0850315655424 1000.0007301379363
          1000.3843036644954 999.9989428648221 1000.0375481367631 997.2959906481436 831.1926753346094 1000.1069914871279
          1002.4585847911962 1008.1314543338832 1000.0185278351736 1000.1919975749489 1000.0022164649536 1001.062155871294
          831.1926753346091 999.9999999999987 999.9999999999993 1000.0000000000003 999.9995688533188 1008.4708160708194
          1001.3232378686151 1000.0000000000048 1000.0000000000016 1000.0250924069429 999.9999999999991 1000.0000000000008
          1000.0000021044817 1000 1000.0033258720515 999.6541017482336 999.9999999999985 999.9999999999999
          1000.0110552743209 999.9999999999991 895.355960331796 999.465653266056 999.0021811298542 500
          1000.0000000000009 1000.0000000000017 956.1161636774616 1000.2811955295739 500 999.9553909990333
          1014.0463775365528 1000.009952131825 990.3776125948116 978.0076306275138 955.6865310735716 999.9999999999999
          1006.1329481195413 975.4413144583201 1000.0010433662546 1000.0000000000023 1007.167517282895 1000.0365882253401
          995.4760895009942 999.9999999999998 1000.0000000000016 1000.0000000000002 1002.4369869783689 1000.0000000000006
          922.4337003934584 1002.4947021604651 1000 1000.0000000000007 999.9999999999976 999.9990003667853
          999.9999993140318 1000.0000000000008 999.9999999999973 1000.0938457368424 999.9999999999997 1000.0000000000005
          999.9999999999999 999.1563732587847 1000.0000000000003 999.9999959272246 1000.0000000000005 1000.0000000000031
          999.9999999999998 996.9398945429526 999.9999999999991 1000.5472998411099 999.9999999999987 1005.4802175585239
          1000.8372645109355 999.9999999999998 1000.0000000000007 1010.2156907476783 967.452740023952 500
          1004.4465065051035 999.9568096194149 999.9999975879368 1068.4128603845068 1119.068808330022 1000.5946804633264
          999.9999999999999 990.1284682980508 1000.0171567564842 1000.0009848873905 1000.0000000000015 1024.1675228337988
          999.9907046970371 1000.0000161106614 1000.0000000000008 999.9999999999999 999.9999999999991 1010.8014201719872
          1000.0000034717496 1047.7904318872459 1002.2747816885343 1000.0000000000003 1000.0000000000032 999.9999999999992
          999.9999522097829 999.9999965856848 999.8521272784541 831.3079964895651 1000.0144372635032 1000.0162093722628
          1000.0217349064388 999.9999999999986 999.9995125828854 831.2123371044287 999.9999999999997 999.9999999999997
          1001.349043459992 1000.0000000000001 999.9999999999997 1000.0000000000048 999.2691906679428 999.9999999999981
          999.3307257967223 1005.4300574400191 1000.0000000000006 1000.0000000000005 1024.2834706906701 500
          1002.6670445799112 831.1974218054653 1000.3193782134397 1004.1826914251961 1000.0000000034 888.2920370010039
          999.7646924633484 1002.6311812921023 1000.0000038568212 999.9993025641099 1000.0000000000007 1000.007749384451
          966.2688538596315 831.3598161764296 994.8487306108044 1002.6821321432501 1000.0024767416868 999.9381777644304
          1000.0190477874515 999.9999999999995 1021.0590513957738 831.3598161764297 1000 1000.0000000000008
          999.9999999999993 999.9999999999987 999.5487704291833 1000.4723278923589 1000.0000000000003 999.9999999999975
          831.4514314414845 999.9999999999964 999.9999999999983 1000 999.8381692235071 994.4387326625177
          995.1899463692648 958.7554599499816 991.9070238357643 994.2565045008643 1000.0000000000005 1000.0000000000005
          1000.1432484093186 1000.0000000000038 999.9629828066113 1000 1000.0317903753469 1000.0000000000002
          831.4175572535801 965.2072710422782 1022.5918621333536 999.9975158900307 999.9994580089678 999.9831302865146
          831.5034297877232 1000.0000000000009 999.9973972200276 1000.0142300567545 999.0210416781118 999.9992650616666
          1000.1567968894965 1000.0000000000014 1000.0000000000002 1000.0000000048583 999.7165217946302 1000.2324270702774
          1000.1436871702748 1001.2710312220622 1000.0000000000002 999.999965357125 999.9999999999978 999.9999999999977
          831.1542396298953 1000.0000000000014 999.9999999999977 999.9995184928601 1000 999.9999999999998
          831.0803369632016 1000.0183727967212 831.4514314414845 999.9999999999995 1000 1000.0000000000019
          999.9999999999984 999.6764965081378 999.9985155618987 1000.0000000000015 999.9999999999999 999.9999999999959
          831.110949416534 1003.5386831123036 831.2123371044287 1000.1145589023197 999.999999999997 999.9999999999999
          831.0310338207158 831.1914165805528 999.9763031232869 726.5109002679837 999.9999780982886 976.1080732811606
          1000.0000332674623 999.9989724906718 831.1109494165339 1000 831.1635421649667 999.999999999999
          1000.0000000000002 999.9999999999994 831.0310338207211 999.9999999999975 994.8487306160706 1000.0000000000003
          998.3553763790765 1000.000000000001 999.9994977054773 999.9999999999977 999.9991452966766 1000.0000000000009
          831.3699112978312 999.5113276994954 831.1542396298953 999.9999999999956 1000.0007797189634 777.3134671215606
          1000.0021577762718 999.0250077295891 831.0803369632016 1005.1134467708212 1000.0082728984836 1000.0001124743347
          1000.1621562675865 831.3079964895651 1000.0578106954133 999.9971561008186 1000.0063018081422 999.999999999996
          1000.1676418631346 999.9992397109131 1003.091744137508 992.6149985429261 999.4365629447025 1000.0324804728751
          999.9999999999986 999.9999929272133 831.41755725358 996.6411007472271 999.9950388933621 1000.0008620278458
          1000.0038116199412 1029.598980277699 831.503429787722 998.3428070227762 999.9991369349218 1006.5439323657266
          999.9992036320904 947.7927521198651 999.9999999999993 999.9437580182223 999.9999248259702 831.1635421649665
          999.999981337378 982.238381100594 999.100330877064 1000.0000000000036 999.9940989422612 1000.0043422634916
          999.9999907408989 1000.0007425092286 831.3699112978311 1005.8770737083923 999.9999850348488 1000.000019128109
          999.9999999999995 1001.0084731522287 617.8815426856189 999.2701777395819 619.2402342641687 1000.0358808335876
          999.9999999999994 999.9999534937403 1000.0000000000015 999.3064690765373 995.0817823094362 983.0253862673849
          1000.0000000000009 999.8803253801467 1000.0000000000009 999.9999999999994 1000 619.2390541174918
          999.9999999999999 996.8563462225053 999.9999999999981 831.3372456996419 1000.1684045372473 999.9999999999998
          1000.0000000000002 999.9999999999992 982.4298319691317 831.481531736037 1000.0000000000018 999.9999731703907
          1000 618.0383183241836 1000.0000000000001 1000.0000000005972 1000 999.9999872618793
          1000.0000000000013 1000.0053513680173 942.9250376313994 831.4815317360096 1000.0000000000018 1003.9679362965351
          1000.0133507842144 982.5775925661607 619.9740428406328 1000.0015707020352 618.0381595539819 999.9750559347802
          1000.0000000000005 991.9429518169094 1000.0476197751034 999.999442332478 999.9990771079853 1097.5283661044903
          1000.0008949220214 999.7473924023553 1000.0504452850655 999.99998497409 996.8265598743354 999.0210494873076
          999.9998778709846 1004.6717966869913 1005.7746396784472 1004.5392146893845 982.7676002645569 500
          996.8154637151105 1000.000025022501 999.9987659072133 989.0786478500185 1004.9881137115244 999.9382143721537
          1006.3916686794616 1000.0103573992276 999.8442168196125 999.9995306784452 1000.2132068111646 1006.5205593228941
          1001.6471951346397 1000.0020336393151 1000.660855776395 1000.0002810948262 1000.0000000035222 986.7608933837826
          1008.2472273193526 831.343059486814 996.5420859632155 1009.2143217963592 500 1003.988445520546
          1005.1576673580224 1002.315477218346 1000.0000075873597 994.5139306436943 956.2060093064983 999.8585976848152
          999.9997994353428 1000.0010806675319
        </DataArray>
        <DataArray type="Float64" Name="pressure" format="ascii" RangeMin="-60000" RangeMax="14288.256999602636">
          -78.82062432844577 -28698.750084970452 2.5471763365203515e-7 627.2620544794881 -5.840950635515583 -20177.29936761136
          0.0023838819652155507 835.8934443806083 2.085250429468033 -1150.6739720061705 -45.85578352498487 3.100545896004405
          1067.5087649157558 21.52933381373714 116.46337446612961 787.9415369294156 4.562627558598251 -1183.598082468793
          -0.00038057688925619004 36.84012278684804 18.266620077297375 8.566015661140227 -3793.076036193793 653.2947116361038
          0.1419763403282559 312.77976563774246 -0.0416486240874292 -1187.9817838495865 -229.890397621798 833.682876804387
          114.99743832090189 267.7508995527023 1.9709709569133338 341.4840859119113 57.47907208093693 -5.163121927162138
          -2.307872606515957 -1898.203960144374 5.942222870976366 -24281.014283926448 -1329.6120594189779 44.05369664595128
          753.7081342631336 -1.7816027238768584 -36743.32668819627 39.010631547025696 -2.361753922573371 -73.1599025614878
          -0.0035231809806646197 9.549694368615746e-11 16.90650199032916 -45854.24186388237 -0.0005340851021173876 -45691.321897357615
          -0.0017775292235455709 -4.092726157978177e-11 -24007.40488575606 4.092726157978177e-11 -1008.6865268397742 73.72602468597051
          -20170.980226617277 -4.092726157978177e-11 178.88385725288117 -1.0913936421275139e-10 -210.9875706328512 -1.3642420526593924e-11
          -45691.321944552285 -2.7284841053187847e-11 -0.016445991354885336 -6.821210263296962e-11 -26785.87429177246 3.3419796261159718
          -2.319211489520967e-10 1.0913936421275139e-10 7.366907084360719e-10 0.11217627973564959 1.7033929050512597 -1.227817847393453e-10
          -0.097620778565215 -1.3642420526593924e-11 -60000 -1.3642420526593924e-11 -38446.2724489462 -6.821210263296962e-11
          26.876646423220336 -509.1723426113458 0.13738630586885847 -3855.2544065635175 -20273.701679884074 -0.05121691775457293
          -3613.8325025124095 300.7657355347783 92.89874922952094 -60000 0.1463925042799019 -60000
          -42.060757027629734 -0.08485708731313935 2658.6217856875282 10.004434001079971 0.5941381874072249 -20226.682978506862
          -2313.875727020277 3.173110166881088 -0.00020086828499188414 -2.5024291971931234e-7 -20276.56497205295 -250.13897375084525
          -2420.43700442935 6.925240135160493 1.227817847393453e-10 10.629676642392951 -0.0030346921494128765 -1.0913936421275139e-10
          -118.42386063769027 0.003239414199924795 0.11207624202143052 0 -1012.8550857476102 -20241.547971460946
          9.13270651205039 0.0015076568115546252 -1.4546699335960511 -601.9356597270871 8.198128867434207 -20251.32381475481
          422.566943966076 -0.12798185229712544 -1010.3017786847795 0.004289309167688771 -20216.208909185647 -0.09255900977677811
          0.33950934568110824 -0.7202431535097276 -20240.563585524305 -0.000548836869711522 -28942.003711487047 0.15465003174085723
          -0.2244262108752082 283.97845628697723 131.93179397213498 0.7583438402753018 -0.07287552589332336 -20219.34111221259
          -1115.2310825181712 -355.08419814933404 -31489.798871051757 -110.29661183946246 6.275513442233205e-10 -20226.682978506862
          230.9740449737319 -20269.583839931416 7.366907084360719e-10 -5.4569682106375694e-11 -7.639755494892597e-10 -3.8198777474462986e-10
          -1.3642420526593924e-11 39.228372195589145 1.6370904631912708e-10 -1.3642420526593924e-11 -1.3642420526593924e-11 -20255.94580223169
          -1.3642420526593924e-11 -20276.56497182725 -6.821210263296962e-11 -1.227817847393453e-10 -1.227817847393453e-10 -20246.330695184985
          -197.72359531921666 -97.83914684139745 -60000 0.2396550040521106 1656.2870517895271 71.19715193147385
          -0.0016223231705225771 -20241.547971460946 6.821210263296962e-11 -20240.56358552429 1.3642420526593924e-11 -0.02309879354925215
          -1.6370904631912708e-10 -20251.32381475421 326.5429059804046 -6.6862786001047425 1.77351466845721e-10 -60000
          1.3642420526593924e-10 -0.05854222395555553 -0.22366811961546773 -0.10471406836586539 335.1716541082942 -20219.34111221259
          -2571.3664639708895 -20276.529419586182 -0.05181070395792631 -0.08935393432693672 -1.227817847393453e-10 -69.58705368057508
          3.54702933691442e-10 -20269.583839931416 -5.184119800105691e-10 -2.7284841053187847e-10 5.4569682106375694e-11 1.3642420526593924e-11
          356.64682809608166 -642.1044371821017 711.7588061240713 -20179.06776270877 -20273.701679885984 1.3642420526593924e-10
          -1.227817847393453e-10 -31303.36421621633 -1.3642420526593924e-11 -284.071362708537 1.0913936421275139e-10 -5.577471575106756
          -5.4569682106375694e-11 -20255.94580223169 -9725.15887313537 -493.34825535673644 -477.13980155940135 -41.256803868031966
          -550.7879741752186 -20246.330695185803 -1839.7329461776462 -16680.62506166204 -618.1523204661562 61.2210886050525
          -4.092726157978177e-11 5707.93721022621 0.03308075183213077 -8.185452315956354e-11 5.405050739445869 0.09719143755319237
          -195.96582805363596 2.5444520183873465 0.00015709951185272075 9.549694368615746e-11 0.012080575788786518 -5.4569682106375694e-11
          265.9048018524891 -20276.529419586182 -0.22241081824631692 -1.9099388737231493e-10 0.053145617221161956 6.362741955899764
          -20219.306620772186 -2.319211489520967e-10 -63.18129505385514 -9.549694368615746e-11 2.864908310584724e-10 -0.09846208432009007
          -20219.306620971653 -5.4569682106375694e-11 1.5006662579253316e-10 -18.748074758273106 0 8.185452315956354e-11
          -2.864908310584724e-10 -2321.763969307417 4.092726157978177e-11 -2.7284841053187847e-11 360.7365912249179 9.549694368615746e-11
          -1.227817847393453e-10 -5823.151179406327 -0.001222037622028438 55.796756844642914 -28561.474469262845 362.70937704408425
          0.2658639344781477 -1.7847410622152893 1118.6420318321007 -15753.555694479204 10.203787865088998 0.08761655235957733
          46.11643973944865 -0.12685622134995356 4.505776411574516 -324.4811222227645 -20256.878959846876 12.83897845534284
          295.03017494354935 975.7745200659838 2.2233402208303232 23.03970899386968 0.2659757944275043 127.45870455527438
          -20256.878959846905 -1.5006662579253316e-10 -8.185452315956354e-11 4.092726157978177e-11 -0.051737601743298 1016.4979284983292
          158.78854423381654 5.729816621169448e-10 1.9099388737231493e-10 3.0110888331500973 -1.0913936421275139e-10 9.549694368615746e-11
          0.0002525378067730344 0 0.3991046461806036 -41.507790211962856 -1.77351466845721e-10 -1.3642420526593924e-11
          1.326632918512587 -1.0913936421275139e-10 -12557.284760184475 -64.12160807327382 -119.7382644174968 -60000
          1.0913936421275139e-10 2.0463630789890885e-10 -5266.060358704608 33.74346354886711 -60000 -5.353080116005913
          1685.5653043863322 1.1942558190003183 -1154.6864886226103 -2639.084324698347 -5317.61627117141 -1.3642420526593924e-11
          735.9537743449573 -2947.042265001587 0.12520395055616973 2.7284841053187847e-10 860.1020739474006 4.390587040811624
          -542.8692598806902 -2.7284841053187847e-11 1.9099388737231493e-10 2.7284841053187847e-11 292.438437404262 6.821210263296962e-11
          -9307.955952784996 299.36425925580807 0 8.185452315956354e-11 -2.864908310584724e-10 -0.1199559857695931
          -0.00008231618267018348 9.549694368615746e-11 -3.2741809263825417e-10 11.261488421082504 -4.092726157978177e-11 5.4569682106375694e-11
          -1.3642420526593924e-11 -101.23520894583635 4.092726157978177e-11 -0.0004887330442215898 5.4569682106375694e-11 3.6834535421803594e-10
          -2.7284841053187847e-11 -367.2126548456845 -1.0913936421275139e-10 65.67598093318338 -1.5006662579253316e-10 657.6261070228702
          100.47174131225802 -2.7284841053187847e-11 8.185452315956354e-11 1225.882889721397 -3905.6711971257664 -60000
          533.5807806124149 -5.182845670210554 -0.00028944758014404215 8209.54324614081 14288.256999602636 71.36165559917117
          -1.3642420526593924e-11 -1184.5838042338983 2.058810778098632 0.11818648685675726 1.77351466845721e-10 2900.102740055854
          -1.1154363555442615 0.0019332793635840062 9.549694368615746e-11 -1.3642420526593924e-11 -1.0913936421275139e-10 1296.1704206384593
          0.00041660994611447677 5734.851826469503 272.9738026241148 4.092726157978177e-11 3.8198777474462986e-10 -9.549694368615746e-11
          -0.0057348260497747106 -0.0004097178225492826 -17.74472658551076 -20243.04042125219 1.7324716203802382 1.9451246715334491
          2.608188772660469 -1.6370904631912708e-10 -0.05849005375694105 -20254.519547468557 -4.092726157978177e-11 -4.092726157978177e-11
          161.88521519904043 1.3642420526593924e-11 -4.092726157978177e-11 5.729816621169448e-10 -87.69711984686637 -2.319211489520967e-10
          -80.31290439332679 651.6068928022969 6.821210263296962e-11 5.4569682106375694e-11 2914.0164828804154 -60000
          320.0453495893498 -20256.309383344164 38.32538561276124 501.9229710235368 4.0800387068884447e-7 -13404.95555987953
          -28.236904398190745 315.7417550522723 0.00046281854338303674 -0.08369230680727924 8.185452315956354e-11 0.9299261341220699
          -4047.7375368442245 -20236.822058828446 -618.1523267034709 321.8558571900121 0.29720900241500203 -7.418668268351212
          2.285734494184908 -5.4569682106375694e-11 2527.086167492862 -20236.822058828435 0 9.549694368615746e-11
          -8.185452315956354e-11 -1.5006662579253316e-10 -54.14754849800829 56.679347083063476 4.092726157978177e-11 -3.001332515850663e-10
          -20225.828227021862 -4.3655745685100555e-10 -2.0463630789890885e-10 0 -19.41969317915209 -667.3520804978716
          -577.206435688222 -4949.344806002205 -971.1571397082798 -689.2194598962897 5.4569682106375694e-11 5.4569682106375694e-11
          17.189809118235644 4.501998773775995e-10 -4.44206320664307 0 3.8148450416247215 2.7284841053187847e-11
          -20229.89312957039 -4175.127474926617 2711.0234560024355 -0.29809319631112885 -0.06503892385808285 -2.024365618253796
          -20219.588425473212 1.0913936421275139e-10 -0.3123335966938612 1.7076068105416198 -117.4749986265806 -0.088192600005641
          18.815626739578875 1.6370904631912708e-10 2.7284841053187847e-11 5.829951987834647e-7 -34.017384644371305 27.89124843328409
          17.24246043297626 152.5237466474664 2.7284841053187847e-11 -0.004157144999226148 -2.5920599000528455e-10 -2.7284841053187847e-10
          -20261.491244412566 1.6370904631912708e-10 -2.7284841053187847e-10 -0.05778085678230127 0 -2.7284841053187847e-11
          -20270.35956441581 2.2047356065468193 -20225.828227021862 -5.4569682106375694e-11 0 2.319211489520967e-10
          -1.9099388737231493e-10 -38.82041902346373 -0.17813257215948397 1.77351466845721e-10 -1.3642420526593924e-11 -4.911271389573812e-10
          -20266.686070015916 424.6419734764322 -20254.519547468557 13.747068278362349 -3.54702933691442e-10 -1.3642420526593924e-11
          -20276.2759415141 -20257.03001033367 -2.8436252055689692 -32818.69196784195 -0.0026282053704562713 -2867.0312062607263
          0.003992095475950919 -0.12330111938354094 -20266.68607001593 0 -20260.374940204 -1.227817847393453e-10
          2.7284841053187847e-11 -6.821210263296962e-11 -20276.27594151347 -3.001332515850663e-10 -618.1523260715267 4.092726157978177e-11
          -197.35483451082473 1.227817847393453e-10 -0.06027534272107005 -2.7284841053187847e-10 -0.1025643988077718 1.0913936421275139e-10
          -20235.610644260254 -58.64067606055414 -20261.491244412566 -5.32054400537163e-10 0.09356627560464403 -26722.383945412726
          0.25893315261782845 -116.99907244930728 -20270.35956441581 613.6136124985387 0.992747818031603 0.013496920169018267
          19.458752110381283 -20243.04042125219 6.937283449597089 -0.34126790176287614 0.7562169770653782 -4.774847184307873e-10
          20.117023576149222 -0.09123469042606303 371.0092965009653 -886.2001748488728 -67.61244663570324 3.89765674501632
          -1.6370904631912708e-10 -0.0008487344075547298 -20229.893129570406 -403.06791033274294 -0.5953327965471544 0.10344334149067436
          0.4573943929426605 3551.8776333238748 -20219.58842547336 -198.86315726685098 -0.10356780938309385 785.2718838871942
          -0.09556414915550704 -6264.869745616188 -8.185452315956354e-11 -6.749037813324321 -0.009020883576340566 -20260.374940204016
          -0.002239514637949469 -2131.394267928722 -107.96029475231535 4.3655745685100555e-10 -0.7081269286572933 0.5210716189913001
          -0.0011110921377621708 0.08910110743727273 -20235.61064426027 705.2488450070814 -0.0017958181433641585 0.0022953730785957305
          -5.4569682106375694e-11 121.01677826744435 -45854.21487772573 -87.57867125017583 -45691.17188829975 4.305700030513435
          -6.821210263296962e-11 -0.005580751158049679 1.77351466845721e-10 -83.22371081552774 -590.1861228676535 -2036.953647913815
          1.0913936421275139e-10 -14.360954382395903 1.0913936421275139e-10 -6.821210263296962e-11 0 -45691.31350590098
          -1.3642420526593924e-11 -377.23845329936466 -2.319211489520967e-10 -20239.53051604297 20.208544469674052 -2.7284841053187847e-11
          2.7284841053187847e-11 -9.549694368615746e-11 -2108.4201637041997 -20222.216191675558 2.1827872842550278e-10 -0.003219553113922302
          0 -45835.40180109797 1.3642420526593924e-11 7.166363502619788e-8 0 -0.0015285744893844821
          1.5006662579253316e-10 0.6421641620727314 -6848.995484232073 -20222.216191678846 2.1827872842550278e-10 476.15235558420864
          1.6020941057240634 -2090.6888920607207 -45603.11485912406 0.1884842442268564 -45835.42085352217 -2.9932878263707607
          5.4569682106375694e-11 -966.8457819708738 5.714373012406213 -0.06692010264032433 -0.11074704176735395 11703.403932538831
          0.10739064256995334 -30.312911717360294 6.053434207860846 -0.0018031091985903913 -380.81281507974836 -117.47406152309395
          -0.01465548184569343 560.6156024389611 692.9567614136658 544.7057627261393 -2067.8879682531715 -60000
          -382.14435418674384 0.003002700113938772 -0.1480911344060587 -1310.5622579977853 598.5736453829304 -7.4142753415617335
          767.0002415353974 1.2428879073104326 -18.693981646501925 -0.05631858657125122 25.58481733974986 782.4671187472904
          197.66341615676083 0.24403671780873992 79.30269316740123 0.03373137913968094 4.2266947275493294e-7 -1588.692793946093
          989.6672783223175 -20238.83286158232 -414.94968441413675 1105.7186155631007 -60000 478.6134624655142
          618.9200829626907 277.8572662015222 0.0009104831678996561 -658.3283227566881 -5255.278883220199 -16.96827782217497
          -0.024067758868113742 0.1296801038324702
        </DataArray>
        <DataArray type="Float64" Name="velocity" NumberOfComponents="3" format="ascii" RangeMin="5.041725823873776e-38" RangeMax="12.79817006116014">
          -0.018204360012341703 0.005423830284522881 0 -2.9856814361698873 -1.391970533146975 0
          4.327136890030958e-11 2.5009961168831892e-11 0 -0.03442706951875786 -0.007165290257367057 0
          0.0011897741624216447 -0.00008270160105320878 0 0.13595269440854574 1.3304757685516257 0
          3.353484174473257e-7 -1.751868208733454e-7 0 0.016274046211826407 -0.025345171775569667 0
          0.00010514165814359942 0.000006511923304829205 0 0.018672471550349123 -0.002503375053519189 0
          -0.0015368511081575173 -0.0008732488116481137 0 -0.00012921799572588856 -0.00005357346179468365 0
          -0.11047128708747185 0.18633186508368094 1.064187260909209 -0.0011836668639775237 -0.0011590814001218074 0
          -0.0002779379355797264 0.006224844207350093 0 -1.1707912940024259 0.40841288946723886 -10.996195985074484
          0.0005559532305968941 -0.00008078507973666183 0 -0.050184067190013615 -0.002751675777368423 0
          1.3499854238286266e-8 5.0425014512933415e-8 0 -0.005020477279192035 0.0003954954789106567 0