<?xml version="1.0"?>
<VTKFile type="PolyData" version="0.1" byte_order="LittleEndian">
  <PolyData>
    <Piece NumberOfPoints="396" NumberOfVerts="396" NumberOfLines="0" NumberOfStrips="0" NumberOfPolys="0">
      <Points>
        <DataArray type="Float64" NumberOfComponents="3" format="ascii">
          0.102549 0.118420 7.555834
          -0.391909 -0.041092 7.414240
          -0.098877 -0.400148 7.270723
          0.608952 1.256204 1.549075
          0.075392 -0.095336 1.831734
          0.680882 0.332950 7.321105
          0.518070 1.190368 1.530540
          -0.532999 -1.026949 7.033985
          0.122459 0.037578 7.412465
          1.389595 -0.129612 1.841312
          -0.135270 -0.741465 1.841403
          -0.075753 -0.405127 7.291407
          -0.029802 1.661696 7.273754
          -0.290260 0.319776 7.526909
          0.061757 -0.452612 1.839893
          0.089337 1.705533 7.341156
          -0.613564 0.061439 7.446598
          1.216638 -0.309324 1.832146
          -0.431343 -1.182059 6.990486
          -0.876289 0.386909 7.231586
          -0.582567 1.078300 1.704332
          -0.418302 -1.152724 6.937501
          0.490701 0.173805 7.561792
          1.328149 -0.012872 1.840806
          -0.011852 -0.822517 1.835730
          -0.038296 1.588989 7.304838
          0.355886 0.206865 7.066387
          -0.065068 0.061234 1.829687
          -0.576934 0.893211 1.822833
          -0.111021 -0.033956 7.423807
          0.113636 -0.767668 1.836968
          -0.375728 -0.110377 7.285907
          -0.137504 -0.378852 7.288952
          0.368434 -0.819289 1.840445
          -0.617350 0.877189 1.843770
          0.743731 -1.195274 7.404317
          1.101430 -0.457283 1.824871
          -0.961201 0.470834 7.156519
          -0.017247 -0.414839 7.452781
          -0.984885 0.291869 7.177695
          -0.474034 -1.240449 7.252915
          -0.566699 -1.464069 7.339053
          -1.154644 0.036235 1.840477
          0.102354 -0.331215 7.348212
          0.483931 -1.382433 7.280202
          1.094048 -0.404366 1.829444
          0.060637 0.270460 7.527568
          -0.520093 -1.471499 7.294990
          -0.411137 -1.072911 7.098668
          0.343418 0.393700 7.328146
          -0.489703 0.820526 1.841809
          -1.307706 -0.101161 1.841956
          0.651312 -0.044664 7.449406
          -0.653023 -0.079224 7.487480
          -0.944671 0.518041 7.224549
          -0.406440 0.246569 7.333701
          -0.676355 -1.385065 7.217112
          -0.647403 1.034779 1.832316
          0.349801 -0.052550 7.185580
          0.768252 0.067613 7.318566
          -1.275338 -0.358232 1.840445
          0.224421 -0.077945 7.383506
          0.377286 0.826844 7.252845
          1.193337 -0.080234 1.835511
          0.005123 -0.475232 7.331163
          -0.743306 0.141410 7.200802
          1.358891 -0.057444 1.840445
          -0.292229 0.336343 7.410608
          0.031969 -0.433557 7.239301
          -0.684108 -1.419064 7.160324
          -0.910394 0.324772 7.137013
          0.068684 1.739421 7.439116
          5.257878 -0.777271 2.324685
          0.253081 0.242248 7.444634
          1.106844 -0.069273 1.820453
          1.317312 -0.013526 1.840445
          -1.248593 0.081986 1.841548
          4.496821 0.059251 6.314041
          0.389118 0.241072 7.113161
          -0.530505 0.029211 7.408698
          0.016116 0.261132 7.523469
          -0.826913 0.372806 7.191529
          -0.773869 0.787255 1.821480
          -0.852268 0.506512 7.193154
          0.567007 0.248919 7.093256
          0.305643 -0.692594 1.841060
          0.703016 -1.026382 7.317153
          0.333680 1.007089 7.258184
          0.378773 0.288057 7.515076
          -0.679124 0.775490 1.838911
          0.313844 1.078276 7.271784
          0.621537 1.172786 1.564212
          0.288847 1.143588 7.324441
          0.810892 -1.290171 7.249314
          -0.115550 0.023334 7.244582
          -0.351589 -1.233186 7.251962
          0.527896 0.205616 7.123924
          -0.651443 -1.421350 7.294635
          -0.373377 -0.073024 7.352725
          0.776675 0.124169 7.341289
          -0.181008 -0.780619 1.840931
          -0.567573 -1.369221 7.018747
          4.063775 0.608695 2.243607
          -0.049553 1.506909 7.329560
          1.290926 -0.029065 1.838375
          1.098970 -0.406719 1.840964
          -0.714768 1.028877 1.700104
          4.278102 -0.019944 6.313878
          -0.117753 -0.469290 7.271536
          -0.532604 -1.472117 7.311609
          -0.650337 1.050530 1.816405
          -0.371150 -1.157331 7.180298
          -0.704835 0.143009 7.114315
          -0.539169 0.797483 1.829831
          -1.147366 -0.059117 1.822004
          0.171155 -0.431249 1.839798
          -0.172690 -0.340762 7.215833
          -0.152476 -0.383045 1.841923
          -0.469289 -0.217649 1.837258
          -0.620185 -0.089303 7.322716
          -0.737318 0.453603 7.183994
          -0.587539 -0.071234 7.314640
          -0.057048 -0.168214 7.476967
          -0.718820 -0.031485 7.439170
          -0.698730 0.006363 7.410164
          -0.006291 0.315068 7.478850
          -0.371336 -1.142888 7.116873
          -0.336011 0.231941 7.424267
          0.488578 0.207406 7.635966
          -0.403454 -1.241809 7.264225
          -0.664969 0.233158 7.196487
          -0.064087 -0.017731 7.300585
          -1.323872 -0.336651 1.840445
          -0.746417 0.775969 1.822963
          -0.444614 -0.233059 1.840445
          0.355332 -0.719937 1.840445
          -0.570080 1.161106 1.727035
          -0.692245 0.444084 7.101182
          -0.614896 0.228584 7.430796
          -0.937391 0.313975 7.169225
          0.171759 -0.627068 1.835856
          -0.569267 1.113462 1.725678
          -0.428898 -1.127677 6.932152
          0.420607 -0.764747 1.840445
          5.172684 -0.690063 2.305935
          -0.009597 -0.741494 1.828844
          -0.527610 -1.388419 7.190370
          0.102016 -0.497807 1.840445
          0.664915 0.158146 7.413011
          4.983480 0.129278 6.305460
          0.284578 1.103655 7.245156
          1.156570 -0.316680 1.842409
          0.615832 0.072629 7.533691
          -0.635041 -1.404799 7.312818
          0.637019 0.379907 7.300413
          0.585830 1.195068 1.748627
          -0.304173 -0.131178 7.376668
          -0.378347 -0.129109 1.825133
          0.104051 1.576184 7.294582
          0.465146 -0.043950 7.420805
          -0.424916 -0.190058 1.841265
          -0.509057 -1.529456 7.307657
          -0.763485 0.794520 1.823612
          -0.095943 1.661245 7.427366
          0.605246 -1.126535 7.374374
          -0.098510 -0.030617 7.464937
          -0.334383 -0.099353 1.832244
          0.266149 1.062838 7.379068
          -0.639692 0.439333 7.141014
          1.260334 -0.113554 1.830203
          0.452825 0.130624 7.623486
          0.412418 0.843683 7.155047
          0.893269 -1.246412 7.275061
          -0.164582 -0.589316 1.826559
          4.047493 0.698503 2.351681
          -0.772820 1.089133 1.736191
          0.340899 0.960785 7.380776
          -0.752153 0.762415 1.830610
          0.549419 -1.205283 7.339934
          4.270315 -0.008450 6.312725
          0.598626 -0.014717 5.537873
          0.415500 0.093100 7.607962
          0.098236 -0.133398 7.424655
          -0.467971 -0.286595 1.840445
          0.201575 0.079965 7.556597
          0.436964 0.854391 7.309840
          -0.000000 -3.514463 5.767034
          0.110710 -0.449613 1.822440
          -0.220084 0.223963 7.604206
          -0.046841 0.031235 1.825446
          0.527734 -1.457365 7.250314
          0.684751 0.160559 6.250596
          0.076588 1.751922 7.302606
          0.126229 0.332579 7.394046
          -0.032679 0.064886 7.479549
          0.359084 0.839163 7.181006
          0.328029 -0.682569 1.840445
          0.296871 0.916125 7.168091
          0.795493 -1.327283 7.350896
          -0.427693 -0.141436 1.841474
          0.154902 0.029868 7.554798
          -0.082607 -0.302305 1.842170
          0.706229 1.117963 1.762565
          -0.735413 -1.389877 7.138662
          0.000000 3.514463 5.767034
          -0.712296 0.935636 1.828160
          0.375298 0.033655 7.114918
          -0.456614 -0.217307 1.840445
          0.399928 1.171730 7.332977
          0.281804 1.289228 7.411982
          0.000632 0.422300 5.291625
          0.142521 0.018339 7.244039
          -0.310369 -0.159624 1.841827
          -0.172414 0.034198 1.841586
          0.048551 -0.185852 1.830665
          -0.587794 -1.046161 7.043004
          -4.153436 0.004518 2.304672
          -0.106920 -0.541069 1.841889
          -0.424234 -1.071389 6.957935
          -0.031844 -0.547169 1.842274
          -0.666687 0.133129 7.132251
          -4.224504 -0.002572 6.344673
          0.016173 1.781423 7.346095
          -1.294917 -0.196195 1.823397
          -0.201390 0.208254 7.281706
          0.916418 -1.288174 7.251373
          -0.610162 0.098318 7.263560
          -0.569043 1.119793 1.679316
          -0.182537 0.017970 1.838889
          -0.168605 0.011153 1.841682
          0.102495 1.562475 7.254400
          -0.211823 0.166306 7.274023
          0.042125 -0.110705 1.839410
          -0.477277 -1.194218 6.929291
          0.427971 1.193017 1.651782
          0.427117 0.117619 7.136955
          -0.457428 -1.210858 7.041931
          -0.562398 -0.062110 7.227797
          -0.238690 -0.085672 1.838785
          0.070186 1.559763 7.401824
          -0.703953 0.517250 7.149850
          -1.160286 0.076661 1.841776
          -0.382906 0.249204 7.433282
          0.017241 1.587723 7.371207
          -0.624316 -1.046876 7.093169
          -0.156583 -0.723089 1.840916
          -4.232915 -0.092132 2.299533
          0.415109 1.148066 1.662533
          -0.071514 1.579020 7.311007
          0.697652 1.113523 1.748794
          -0.408660 -1.076071 7.123967
          -4.095663 -0.025159 6.341611
          -0.071596 -0.498984 7.274641
          0.437164 -1.306826 7.356133
          0.604390 1.140160 1.751230
          0.296983 0.166859 7.064349
          1.023881 -0.236969 1.840445
          0.590960 1.246532 1.759631
          1.258072 -0.132274 1.840369
          -0.152318 -0.418434 1.835183
          -0.075085 -0.061928 1.842215
          0.670851 1.183536 1.656759
          0.332817 -0.747823 1.839868
          0.660696 0.182075 7.324680
          0.611593 0.495545 7.306653
          -0.182311 -0.121090 7.333320
          -0.185128 0.276040 7.435758
          0.726495 0.339798 7.348030
          -0.072936 -0.084274 7.518434
          -0.452558 -0.062066 7.341415
          0.422532 -1.311096 7.409842
          -0.985981 0.436418 7.208098
          0.491720 0.304991 7.550119
          0.633067 -1.330067 7.314231
          0.390712 0.275722 7.270594
          0.004730 0.161389 7.337978
          1.132515 -0.294366 1.831043
          0.516560 1.177204 1.610295
          -0.030112 -0.217314 1.842382
          -0.361396 -0.039451 1.840445
          0.460617 1.110463 1.539221
          0.671823 0.072952 7.412864
          -0.656621 0.134001 7.207408
          0.633077 0.516835 7.270544
          1.089397 -0.119669 1.828555
          0.590195 0.530254 7.274815
          0.703899 0.244683 7.288225
          0.366408 -0.732905 1.827239
          -4.188139 0.070927 2.328122
          0.906855 -1.252478 7.277192
          -1.314780 -0.289667 1.840543
          -1.252137 -0.046854 1.842160
          1.110491 -0.424038 1.836283
          -4.201089 0.012396 6.343103
          0.514709 0.411107 7.384599
          0.564438 0.507999 7.302906
          0.362365 0.063525 7.543942
          0.512119 0.251425 7.604756
          0.440030 1.170204 1.602062
          0.241197 0.022572 7.185342
          0.057460 -0.368234 7.342111
          -0.192879 -0.568365 1.827769
          -0.443987 -1.311822 7.337220
          -0.794307 0.500748 7.243039
          -0.265522 0.292857 7.442156
          0.385124 1.074603 1.587656
          0.297438 0.014277 7.134761
          -0.624863 1.071826 1.649119
          0.433118 0.957316 7.296237
          -0.542096 -1.389029 7.298304
          -0.216676 0.192796 7.426399
          0.659010 -1.089648 7.291254
          0.417377 0.236448 7.029117
          0.474046 -1.310191 7.315982
          0.443032 0.212799 7.601696
          0.360092 0.218699 7.017098
          1.105793 -0.086056 1.840445
          0.434632 -1.302800 7.381088
          -4.160744 -0.024188 2.316903
          0.352655 0.832907 7.130446
          -1.197192 0.000806 1.841482
          -1.286110 -0.331749 1.840581
          1.301391 -0.091884 1.840445
          -4.249435 0.056210 6.342115
          -1.264021 -0.344733 1.841033
          0.670928 0.009214 7.513802
          0.080495 0.239275 7.399510
          0.491227 0.453404 7.192553
          0.576375 -1.454909 7.331205
          0.067014 0.326132 7.460470
          1.077879 -0.397375 1.841196
          0.099361 1.678289 7.323924
          -0.547459 -1.273707 7.003225
          -1.264668 -0.325693 1.834215
          -0.400130 -0.053697 7.421286
          0.612916 -1.156585 7.372172
          0.564802 -1.366036 7.246348
          -0.597524 -1.147694 7.209569
          0.561816 0.479097 7.338771
          -0.112861 -0.675643 1.841423
          0.075860 0.272033 7.478530
          0.438865 0.042807 7.021160
          0.133798 0.341516 7.472640
          -1.290346 0.056402 1.834663
          0.715728 -1.194823 7.371250
          0.014297 -0.221141 7.472425
          -0.681757 0.408268 7.232006
          0.457326 0.047640 7.392252
          1.044229 -0.434689 1.824077
          0.435604 0.026508 7.107709
          0.023219 1.727595 7.247608
          -1.189061 -0.135146 1.843670
          -0.364778 0.271697 7.400984
          0.533275 0.244983 7.038467
          -1.230751 0.063539 1.833835
          0.703816 0.130868 7.346542
          -0.016820 -0.487509 7.273652
          0.842876 -1.311134 7.265775
          0.314147 0.288962 7.209604
          0.332460 0.829194 7.271176
          0.357089 0.194518 7.562949
          0.245732 -0.052205 7.286310
          -0.642931 0.282740 7.129718
          -0.590913 0.923139 1.843076
          0.026513 -0.793211 1.821568
          -0.853232 0.311704 7.298197
          -0.762504 0.992912 1.841826
          0.882343 -1.283062 7.237564
          0.830357 0.129875 7.364351
          -1.180683 -0.027582 1.841881
          0.328646 -0.790289 1.820627
          -0.384982 -0.019073 7.438883
          0.380180 1.079292 7.350483
          0.688639 0.523465 7.239014
          -0.154464 -0.479386 1.838163
          0.342975 0.856253 7.133207
          -0.003751 -0.205882 7.434126
          -1.241060 -0.371197 1.838359
          0.653409 -1.105419 7.418766
          0.821059 -1.402976 7.339685
          0.676045 1.123394 1.753838
          0.491117 -1.459745 7.289983
          0.426721 -0.025988 7.494277
          -1.256930 -0.264634 1.839787
          0.162893 -0.435746 1.835025
          -0.074558 1.643023 7.306047
          -0.729170 0.229004 7.070463
          -0.148929 0.035514 1.837935
          0.639725 1.155528 1.636983
          0.018406 -0.175772 7.465648
          -0.139166 -0.339056 7.245069
          -0.630418 -0.003341 7.464233
          -0.038428 -0.464717 7.323223
          0.078959 -0.421183 1.832341
          0.438190 1.154550 1.661776
          -0.513266 -1.429293 7.217945
        </DataArray>
      </Points>
      <PointData Scalars="density">
        <DataArray type="Float64" Name="density" format="ascii">
          1005.868439
          1050.311684
          1110.619206
          866.413331
          675.769862
          1064.145684
          966.794594
          865.874087
          1165.471086
          772.477866
          861.333342
          1153.231442
          1088.509969
          722.872285
          1022.775277
          1046.273898
          992.163428
          1002.599725
          1078.635331
          1112.001467
          904.938149
          874.648347
          1133.285643
          834.487175
          698.240875
          1076.007409
          1032.880314
          746.259331
          1123.326525
          1109.241294
          880.962148
          844.243508
          1065.963551
          721.855941
          1126.799235
          1012.941803
          743.151341
          825.565171
          863.218646
          697.113121
          1092.862038
          929.471125
          867.114042
          914.435771
          917.557644
          871.159628
          1013.041118
          992.355025
          983.841792
          741.795588
          615.720038
          1054.328968
          727.425046
          681.765770
          752.772675
          872.510006
          974.134195
          1107.309031
          792.933090
          824.720019
          892.932613
          878.366862
          888.991482
          1086.835401
          1015.377539
          993.096093
          847.518417
          797.145761
          938.000060
          919.440455
          993.162746
          863.482839
          500.000000
          1095.496864
          827.986414
          860.445909
          839.143532
          500.000000
          1072.235702
          1199.553209
          1016.265741
          1246.378418
          793.083642
          966.831756
          846.609401
          869.086836
          582.487138
          1073.148833
          1005.571612
          906.705053
          961.829219
          1025.030895
          726.706166
          961.453739
          707.685123
          838.531195
          986.313313
          931.714910
          996.995727
          834.185740
          636.555541
          724.182003
          500.000000
          820.819976
          927.464509
          864.457957
          959.428579
          500.000000
          944.881076
          988.303326
          1097.884986
          963.813515
          792.467783
          793.235576
          1014.313659
          772.018096
          784.793001
          863.774309
          836.666982
          955.023615
          1079.252905
          1049.252851
          1002.953819
          743.764228
          873.875058
          967.910958
          1058.101404
          1008.488975
          890.792405
          902.269468
          1081.676814
          955.856552
          876.169418
          825.357767
          821.486286
          799.933762
          738.471261
          936.669354
          681.202816
          881.233729
          994.289846
          872.560177
          907.188883
          690.807103
          500.000000
          885.938376
          1204.857519
          997.870036
          1127.218378
          500.000000
          803.881963
          1055.903114
          1032.409086
          954.975173
          1075.858027
          1077.497780
          887.467763
          991.986936
          964.390705
          799.772435
          885.410836
          780.888929
          856.750424
          814.760556
          896.430766
          1070.009883
          1026.101439
          750.472869
          791.002188
          1051.586505
          990.547524
          840.820743
          837.964126
          970.799399
          500.000000
          695.373317
          871.108041
          807.134665
          1072.974041
          500.000000
          500.000000
          978.145100
          1028.587186
          674.951160
          985.399794
          827.015018
          500.000000
          922.342476
          596.357040
          817.462537
          724.233421
          500.000000
          954.098114
          869.494033
          1163.067738
          888.955691
          861.620211
          921.383055
          991.741730
          923.756422
          946.249345
          908.465967
          749.272771
          616.522870
          500.000000
          1149.381439
          1012.824823
          780.882691
          678.719206
          500.000000
          500.000000
          837.692999
          1074.592164
          903.031893
          751.818272
          713.222190
          500.000000
          1057.921284
          889.370262
          1158.288953
          873.650125
          500.000000
          901.162803
          1108.498539
          806.128456
          708.919867
          1085.134129
          742.817939
          976.189935
          951.732864
          898.202634
          815.901682
          743.691647
          897.751055
          964.513360
          1145.743827
          1185.445993
          864.695187
          1115.107435
          953.546136
          758.833330
          813.080706
          915.680648
          1084.070006
          656.419235
          829.444400
          500.000000
          942.636344
          983.629618
          830.652722
          1029.874856
          500.000000
          965.633426
          832.680631
          1067.602513
          965.312400
          856.000926
          946.084239
          1095.657667
          857.504746
          995.815866
          1002.605483
          833.760218
          1107.416263
          910.913656
          1007.470788
          1025.723689
          949.088828
          1005.756234
          1086.183919
          743.942649
          822.056152
          910.910554
          1185.607271
          1032.038577
          1062.465159
          1060.661392
          1172.823151
          896.896181
          891.204391
          922.904407
          1020.445266
          1041.509448
          833.916880
          884.775638
          822.975206
          1013.987857
          773.654386
          500.000000
          735.083033
          943.383593
          1088.247651
          803.457825
          500.000000
          971.985466
          885.688951
          1020.316882
          937.673844
          968.811848
          899.983095
          1049.999734
          827.806739
          874.351425
          907.806230
          944.944166
          735.941945
          929.125696
          802.434951
          990.218024
          1132.017538
          1120.456894
          832.962095
          915.966900
          980.372100
          1003.950565
          868.086505
          894.113611
          865.663218
          500.000000
          745.756870
          1006.304169
          911.763804
          1010.087682
          500.000000
          891.653535
          782.574444
          1135.874184
          856.520093
          823.718248
          965.661158
          878.275596
          1042.354068
          1021.367560
          918.552871
          1037.954830
          1045.063729
          1016.610534
          892.097876
          912.432251
          994.817866
          1083.961044
          813.634624
          899.581944
          819.823133
          1104.597697
          995.253577
          993.858970
          1059.769857
          765.448806
          908.319301
          983.922242
          1110.204957
          916.790517
          804.287526
          899.706977
          1024.491690
          1008.657130
          954.979899
          868.870924
          864.127348
          1109.999120
          834.689432
          967.622212
          1114.811033
          782.096306
          930.880295
          1002.165449
          807.259773
          716.317593
          1014.451308
          814.719799
          1063.098229
          881.371879
          708.737340
          918.144101
          788.918245
          1099.459462
          792.811118
          804.518514
          784.814047
          837.419966
          724.430771
          827.819026
          1058.305419
          764.394342
          1014.523702
          913.677605
          947.680239
          1091.963434
          1043.368580
          998.379904
          978.856934
          1055.485238
          929.949126
          1016.267371
          1091.140650
        </DataArray>
        <DataArray type="Float64" Name="pressure" format="ascii">
          176.053180
          1509.350516
          3318.576175
          -4007.600069
          -9726.904138
          1924.370535
          -996.162167
          -4023.777392
          4964.132583
          -6825.664014
          -4159.999733
          4596.943274
          2655.299083
          -8313.831460
          683.258298
          1388.216944
          -235.097165
          77.991752
          2359.059936
          3360.044014
          -2851.855529
          -3760.549604
          3998.569284
          -4965.384740
          -9052.773740
          2280.222267
          986.409418
          -7612.220056
          3699.795753
          3277.238835
          -3571.135555
          -4672.694760
          1978.906530
          -8344.321783
          3803.977036
          388.254094
          -7705.459757
          -5233.044883
          -4103.440611
          -9086.606370
          2785.861139
          -2115.866247
          -3986.578746
          -2566.926882
          -2473.270679
          -3865.211160
          391.233541
          -229.349250
          -484.746230
          -7746.132375
          -11528.398869
          1629.869035
          -8177.248605
          -9547.026889
          -7416.819748
          -3824.699831
          -775.974145
          3219.270927
          -6212.007293
          -5258.399437
          -3212.021609
          -3648.994141
          -3330.255545
          2605.062037
          461.326173
          -207.117209
          -4574.447478
          -6085.627178
          -1859.998198
          -2416.786349
          -205.117622
          -4095.514818
          -15000.000000
          2864.905909
          -5160.407573
          -4186.622723
          -4825.694035
          -15000.000000
          2167.071048
          5986.596278
          487.972230
          7391.352540
          -6207.490731
          -995.047331
          -4601.717983
          -3927.394905
          -12525.385847
          2194.464988
          167.148370
          -2798.848420
          -1145.123432
          750.926853
          -8198.815020
          -1156.387817
          -8769.446318
          -4844.064140
          -410.600611
          -2048.552694
          -90.128201
          -4974.427811
          -10903.333779
          -8274.539917
          -15000.000000
          -5375.400707
          -2176.064719
          -4066.261300
          -1217.142619
          -15000.000000
          -1653.567719
          -350.900208
          2936.549589
          -1085.594551
          -6225.966520
          -6202.932718
          429.409766
          -6839.457125
          -6456.209977
          -4086.770734
          -4899.990539
          -1349.291540
          2377.587161
          1477.585527
          88.614575
          -7687.073159
          -3783.748267
          -962.671250
          1743.042114
          254.669248
          -3276.227860
          -2931.915968
          2450.304430
          -1324.303450
          -3714.917468
          -5239.266999
          -5355.411423
          -6001.987152
          -7845.862175
          -1899.919385
          -9563.915529
          -3562.988120
          -171.304614
          -3823.194687
          -2784.333514
          -9275.786916
          -15000.000000
          -3421.848718
          6145.725574
          -63.898933
          3816.551342
          -15000.000000
          -5883.541101
          1677.093408
          972.272586
          -1350.744812
          2275.740813
          2324.933396
          -3375.967104
          -240.391924
          -1068.278854
          -6006.826951
          -3437.674934
          -6573.332130
          -4297.487280
          -5557.183314
          -3107.077034
          2100.296493
          783.043162
          -7485.813940
          -6269.934350
          1547.595163
          -283.574282
          -4775.377698
          -4861.076232
          -876.018023
          -15000.000000
          -9138.800490
          -3866.758767
          -5785.960039
          2189.221242
          -15000.000000
          -15000.000000
          -655.647012
          857.615592
          -9751.465208
          -438.006189
          -5189.549462
          -15000.000000
          -2329.725725
          -12109.288803
          -5476.123886
          -8272.997366
          -15000.000000
          -1377.056581
          -3915.179006
          4892.032147
          -3331.329261
          -4151.393681
          -2358.508344
          -247.748101
          -2287.307348
          -1612.519650
          -2746.020992
          -7521.816875
          -11504.313908
          -15000.000000
          4481.443179
          384.744677
          -6573.519260
          -9638.423823
          -15000.000000
          -15000.000000
          -4869.210038
          2237.764908
          -2909.043219
          -7445.451829
          -8603.334288
          -15000.000000
          1737.638517
          -3318.892152
          4748.668593
          -3790.496247
          -15000.000000
          -2965.115900
          3254.956163
          -5816.146311
          -8732.403998
          2554.023874
          -7715.461833
          -714.301939
          -1448.014070
          -3053.920985
          -5522.949530
          -7689.250580
          -3067.468341
          -1064.599204
          4372.314807
          5563.379800
          -4059.144402
          3453.223062
          -1393.615917
          -7235.000097
          -5607.578812
          -2529.580549
          2522.100185
          -10307.422964
          -5116.668005
          -15000.000000
          -1720.909692
          -491.111469
          -5080.418355
          896.245683
          -15000.000000
          -1030.997215
          -5019.581067
          2028.075398
          -1040.628013
          -4319.972220
          -1617.472816
          2869.730001
          -4274.857633
          -125.524023
          78.164482
          -4987.193457
          3222.487901
          -2672.590326