<?xml version="1.0"?>
<VTKFile type="PolyData" version="0.1" byte_order="LittleEndian">
  <PolyData>
    <Piece NumberOfPoints="686" NumberOfVerts="686" NumberOfLines="0" NumberOfStrips="0" NumberOfPolys="0">
      <Points>
        <DataArray type="Float64" NumberOfComponents="3" format="ascii">
          -1.042378 -0.230270 4.605734
          -1.027994 0.515316 4.441232
          0.086780 0.755689 3.112335
          -0.603740 -0.902067 4.318004
          -0.304006 -1.740534 4.194366
          -0.123612 0.119602 4.254593
          -0.522101 0.930037 3.585046
          -1.035582 -0.328804 4.658875
          -0.370809 0.423895 4.361880
          -2.364200 -0.510506 4.261432
          -1.428496 -1.225619 4.269962
          -0.231765 0.224240 4.217215
          -1.353135 -0.080739 4.504640
          -1.765044 0.111245 4.043280
          -1.102461 -0.186124 4.418858
          -0.357461 0.034076 5.264464
          0.732058 -1.450864 3.704723
          -2.362844 -0.553050 4.281641
          -0.858384 -0.226413 3.594605
          -1.471666 -1.005238 4.265637
          -1.757738 0.033855 4.058597
          -1.254021 -0.289944 4.302067
          -0.194546 0.657578 4.951542
          -1.357989 -0.093401 4.477822
          0.588460 -1.136689 3.932733
          -1.162537 -0.254420 4.376723
          -1.642087 -0.299778 3.831221
          -2.352153 -0.497357 4.246944
          -0.988445 -0.333386 4.602386
          -1.013637 -1.106897 4.668505
          -1.285801 -0.212915 4.234999
          -1.002743 -0.340478 4.589983
          0.331255 1.164888 3.974010
          -1.633256 1.373644 4.288441
          -1.813546 0.086157 4.082739
          -1.049285 -0.223107 4.481654
          -0.204118 0.286731 4.127878
          -1.411135 0.419171 4.542439
          -1.263074 -0.343605 4.174224
          -0.700752 1.142665 4.578486
          -1.394896 -0.104737 4.448773
          -1.773533 0.022044 4.065603
          -1.063513 -0.376699 4.712362
          -0.538518 1.487714 4.630848
          -1.091881 0.526779 4.465675
          -1.172317 -0.238296 4.318882
          -0.583061 1.515640 4.625782
          0.327350 1.174967 4.153009
          -0.550112 0.940126 3.529981
          -0.179634 -2.518031 0.000000
          -1.400427 -1.234409 4.237312
          -5.327079 -2.582537 0.000000
          -0.766458 -0.210686 3.560249
          -5.325165 -2.599028 0.000000
          -0.322708 0.837190 3.253062
          0.060358 -1.225439 0.000000
          -0.586415 1.103225 4.617838
          -4.393766 -2.255467 0.000000
          -0.509520 -0.870549 4.263492
          1.632713 -0.774731 4.523838
          -0.036866 0.098614 4.259133
          -3.995088 -2.384825 0.000000
          -1.444668 0.419932 4.520691
          -5.252502 0.007621 0.000000
          -0.786752 -1.738751 0.000000
          -2.394963 -0.027212 0.000000
          -5.311537 -2.581507 0.000000
          -2.404397 -0.070195 0.000000
          -1.668252 -0.282605 3.888784
          -5.249344 0.004807 0.000000
          -1.063119 0.494868 4.582842
          0.695305 -2.263523 4.300386
          -5.290181 -0.050000 0.000000
          -2.371347 -0.050059 0.000000
          -5.192854 -0.050001 0.000000
          -1.640972 -0.209362 3.892060
          0.808678 -1.537346 3.805855
          -5.252513 -0.107620 0.000000
          -0.041861 1.047887 0.000000
          -2.394886 -0.072789 0.000000
          -5.160479 2.476665 0.085377
          -2.404281 -0.029744 0.000000
          -0.689775 1.136940 4.576656
          -5.249345 -0.104805 0.000000
          0.789012 0.841447 5.241445
          -4.389378 2.158875 0.000000
          -0.346049 -1.659151 4.314342
          -0.255431 0.832691 4.514040
          0.549025 -0.485425 3.328812
          -4.026473 2.465549 0.000000
          -1.473468 0.454981 4.461813
          -0.059376 2.301427 0.000000
          -0.135942 -1.951935 4.276913
          -5.144064 2.473407 0.068427
          0.588693 -1.170263 3.960205
          -5.164976 2.464761 0.085112
          0.209526 1.251310 4.573264
          -0.446306 1.169640 0.000000
          -0.584920 -2.901188 4.116762
          -0.004573 1.421911 3.907338
          0.842842 -2.218042 4.288788
          -3.731927 -1.360820 0.000000
          -1.418883 -0.112583 4.488036
          -0.134604 -1.868650 4.261510
          -0.770076 -0.149596 3.527253
          0.083488 0.762607 2.980733
          -4.562323 -3.238236 0.003130
          -0.985152 -1.095630 4.655426
          -1.279978 0.578289 4.609298
          0.699724 -1.483199 3.828925
          -3.976431 -2.554501 0.000000
          -0.620310 -1.317684 4.733715
          -0.446823 1.066647 3.544049
          0.831733 -1.608158 0.000000
          -0.512274 -0.073699 5.228995
          0.231833 -1.501880 3.993215
          0.643204 -1.119541 3.890005
          -0.363206 -1.264889 0.000000
          -0.437697 -1.064956 4.304441
          -3.424259 -0.051372 0.000000
          -1.095366 -0.164917 4.618844
          -0.586692 0.996034 3.671678
          -1.152023 -0.309176 4.428309
          -0.474500 -1.159679 4.262124
          -1.751517 0.082529 4.059801
          -3.951042 -0.045392 3.732248
          -1.082768 -0.353274 4.700598
          -0.297188 1.019726 0.000000
          -0.509058 -0.945826 4.324580
          -0.570103 0.944149 3.635270
          -0.010497 0.118948 4.211714
          -0.445627 1.167649 0.000000
          -0.563640 1.453260 4.555240
          0.847620 -2.191869 4.265367
          -4.288014 2.964531 0.000000
          -0.800974 -0.137911 3.598972
          -0.565541 1.219518 4.629271
          -1.580745 -0.353355 3.861778
          -3.882905 2.274734 0.000000
          -1.770125 1.523731 4.361940
          1.391276 0.610059 4.004972
          0.251448 -1.490086 3.940194
          0.960287 1.114571 3.746405
          -3.738285 0.855747 0.000000
          -2.357909 -0.516631 4.246420
          -1.620416 1.370164 4.315064
          -0.525629 1.169520 4.591665
          -0.714463 -1.772910 0.000000
          -4.383335 -2.276103 0.000000
          -3.736997 -1.368622 0.000000
          -0.327683 -1.691109 4.294822
          -3.737511 -1.363755 0.000000
          -4.033221 -2.414527 0.000000
          0.185523 -1.322841 0.000000
          -4.428778 -2.273392 0.000000
          0.423665 -2.449210 0.000000
          -0.375490 -3.723758 0.000000
          -1.491952 -1.209880 4.229819
          -0.643707 -3.912892 0.000000
          0.325025 -1.432403 0.000000
          -4.042222 -2.507789 0.000000
          -3.419370 -0.050257 0.000000
          -0.301544 -3.609831 0.000000
          -4.547754 -3.246922 0.004784
          -0.131562 -3.897329 0.000000
          -3.863685 -2.467069 0.000000
          -0.729299 -3.847554 0.000000
          -3.937994 -0.049341 3.723611
          -1.168099 0.592945 4.494255
          -1.058813 -1.137224 4.699491
          -0.602544 0.578636 5.796628
          -1.703524 -0.271702 3.790246
          -0.056631 -0.219114 3.279786
          -1.458751 -1.060262 4.236167
          -0.219039 0.783849 3.264578
          -3.417613 -0.045924 0.000000
          -0.298664 3.538528 0.000000
          -4.279740 2.966701 0.000000
          0.176559 3.902456 0.000000
          -4.027184 2.464137 0.000000
          -0.728646 3.747123 0.000000
          -3.943231 -0.052248 3.725290
          -4.428563 2.172410 0.000000
          0.141146 2.365504 0.000000
          -0.267401 3.478422 0.000000
          2.368174 -0.178011 4.576252
          -0.640679 3.809804 0.000000
          -0.308075 1.415632 0.000000
          -3.893311 2.268910 0.000000
          -0.051390 1.081434 0.000000
          -4.383150 2.172628 0.000000
          -3.730627 0.849802 0.000000
          -0.214755 0.866748 4.483533
          -3.732613 0.855032 0.000000
          -4.026104 2.465417 0.000000
          -0.460506 1.258049 0.000000
          0.790591 -1.509439 0.000000
          0.352820 -3.618485 0.000000
          -4.428779 -2.273388 0.000000
          -3.731390 -1.365679 0.000000
          -4.026238 -2.529791 0.000000
          -0.731310 -3.914129 0.000000
          0.165093 -1.311208 0.000000
          -0.279538 -3.662884 0.000000
          0.740858 0.936623 5.267138
          -0.475933 -1.122185 4.274610
          -1.591254 1.428757 4.349339
          0.014047 0.119733 4.272474
          0.463780 -0.600265 3.338791
          -0.639707 -3.906493 0.000000
          -4.394582 -2.294276 0.000000
          -0.583899 1.214905 4.658326
          -0.206211 -2.385819 0.000000
          -0.060236 -1.914834 4.266512
          0.032751 -1.387234 0.000000
          -1.162550 -0.289430 4.512762
          -3.862991 -2.457045 0.000000
          -3.415926 -0.052446 0.000000
          -1.377477 0.552913 4.505530
          -1.225304 0.609958 4.529755
          0.791349 0.858260 5.193046
          -1.044249 -1.130922 4.695633
          -1.246050 0.550883 4.508602
          -3.948237 -0.053018 3.730352
          -4.399590 2.196296 0.000000
          -1.096152 0.394844 4.434627
          -0.019173 2.168181 0.000000
          -1.717208 1.483941 4.363605
          0.732751 1.205345 0.000000
          -1.459799 0.457222 4.464786
          -3.881136 2.276177 0.000000
          -0.213127 3.571103 0.000000
          -0.330697 0.405386 4.440136
          0.234020 1.242823 4.023119
          -0.283857 -0.009464 5.255491
          -1.316182 -0.317108 4.157109
          -0.264206 0.744012 3.260350
          -0.641339 3.810922 0.000000
          -0.148067 1.419486 0.000000
          0.181691 3.475839 0.000000
          -4.428561 2.172409 0.000000
          -3.736297 0.850515 0.000000
          -3.881819 2.275585 0.000000
          -0.731785 3.813094 0.000000
          -0.309455 1.414087 0.000000
          -1.386816 -1.104278 4.316463
          -4.554066 -3.229151 0.001007
          -0.287863 -3.963064 0.000000
          0.218978 -3.731592 0.000000
          -0.336907 -3.854938 0.000000
          -3.941872 -2.378522 0.000000
          0.590280 -1.136243 3.932221
[...]
      <PointData Scalars="density">
        <DataArray type="Float64" Name="density" format="ascii">
          1067.089147
          829.409053
          682.139755
          862.500663
          953.474190
          1006.968744
          1016.354202
          1112.825783
          1073.137699
          778.863056
          980.692963
          980.195608
          885.869431
          864.861622
          891.111704
          1219.228487
          626.704909
          754.379037
          915.456917
          796.036720
          921.644228
          1230.456532
          500.000000
          927.477362
          956.264781
          1162.333195
          1156.305810
          739.326317
          951.516518
          757.222031
          929.684367
          1025.089252
          708.755137
          837.608115
          861.231565
          963.295357
          860.330380
          786.960139
          941.621188
          842.275022
          907.010614
          883.141757
          832.358370
          885.586779
          1118.844692
          1015.796388
          861.872980
          864.174896
          895.564649
          1012.510865
          942.115728
          618.021170
          995.687909
          619.391882
          776.401259
          999.808587
          961.496242
          1000.217949
          714.137330
          930.015333
          813.581761
          1003.467370
          812.620518
          972.357174
          1001.662943
          999.981121
          619.218649
          1000.078674
          1099.529624
          987.653131
          853.622628
          913.957461
          1026.839515
          1000.074644
          969.783694
          872.000735
          858.691197
          972.355834
          974.670191
          999.984932
          598.583162
          1000.079455
          892.499501
          987.657525
          922.268055
          1000.027321
          961.091289
          986.063515
          573.961633
          955.558391
          826.768058
          1051.803408
          898.892222
          600.706909
          973.845413
          605.124767
          725.310738
          985.474661
          500.000000
          752.548893
          898.005454
          831.447719
          918.401286
          1018.559044
          904.711966
          843.591396
          821.378458
          740.325310
          850.756622
          718.943007
          1006.450469
          842.290936
          691.467902
          1000.198895
          965.838153
          826.203577
          799.479899
          999.660960
          940.119024
          831.362562
          590.830703
          803.792940
          1057.125390
          738.699923
          940.383944
          816.495803
          837.762009
          969.312010
          1082.337421
          943.756222
          744.942003
          986.301413
          856.381310
          830.453521
          831.330432
          960.416397
          954.678401
          983.587214
          963.938515
          610.814403
          881.155851
          846.324758
          785.534864
          831.506285
          755.344235
          845.641174
          832.705684
          995.891638
          1000.406293
          831.445166
          1072.214048
          831.088600
          1005.921155
          998.490705
          999.660497
          1000.003370
          999.664011
          890.826833
          1005.620756
          1000.077713
          1003.683769
          831.761485
          999.827577
          828.734002
          998.910031
          1012.659166
          1001.962072
          822.622114
          1100.045058
          717.979309
          500.000000
          947.205485
          1005.160895
          1027.212771
          944.785573
          831.145385
          1000.009921
          831.330420
          1000.498418
          956.233934
          1001.635217
          824.630988
          999.950065
          957.825584
          1000.010158
          500.000000
          1005.386918
          1001.061049
          970.607401
          1029.129057
          1000.023429
          831.505596
          969.651970
          831.031363
          955.754147
          960.828402
          1000.151769
          999.581985
          999.657884
          831.089818
          1002.285653
          994.835390
          998.297050
          999.532582
          866.722613
          918.118444
          978.465524
          577.902424
          627.598169
          1006.329527
          999.931440
          913.723105
          994.955164
          754.571452
          1002.451938
          1022.084580
          998.791879
          831.109160
          913.632921
          1062.678091
          868.582417
          769.127697
          1171.520380
          825.850964
          1000.008476
          786.410664
          980.293515
          913.213949
          1000.051810
          775.736553
          963.197354
          1000.003669
          914.311557
          891.112081
          923.619188
          1018.490746
          988.164842
          1004.775413
          992.948171
          999.998331
          999.949436
          831.031116
          962.155787
          994.650649
          1004.184776
          912.066414
          828.860282
          999.033236
          999.484122
          999.599274
          1004.045198
          878.866560
          825.014918
          999.996381
          997.378704
          799.753572
          990.553713
          998.061283
          1001.585802
          959.234721
          1000.010956
          1000.210930
          963.059197
          1000.681592
          998.405167
          1015.019791
          890.754865
          1139.373454
          875.028137
          911.106803
          717.868843
          1020.112669
          1021.161187
          934.777224
          1018.096015
          1040.211465
          1001.248735
          969.954747
          1007.163224
          930.681245
          831.191429
          984.737082
          1009.950733
          809.588708
          962.886067
          1078.465171
          1100.908496
          806.190159
          831.191881
          999.417509
          999.472082
          999.166679
          956.034185
          833.743500
          1001.809791
          996.848239
          1000.524825
          1000.226391
          1000.779715
          1000.360321
          1080.243245
          1000.004133
          828.811315
          999.649737
          1000.476035
          1004.600676
          1104.461423
          998.383200
          923.679975
          999.862050
          863.963599
          611.806110
          999.384093
          1003.750551
          1075.352447
          990.703443
          500.000000
          1082.481833
          802.460791
          889.759367
          1083.534016
          692.855862
          988.656518
          1000.002698
          1012.713048
          965.496943
          1027.273677
          1003.440546
          873.963223
          964.983483
          792.544073
          1000.007149
          999.549908
          1004.103639
          893.146851
          1000.020395
          927.060467
          990.963115
          998.864869
          1001.134132
          999.047382
          970.156989
          924.170208
          1000.161046
          991.473507
          999.409016
          999.380902
          1000.569760
          999.282633
          868.145112
          1003.062674
          1000.057637
          999.129623
          998.906493
          1004.632802
          809.457400
          1000.037025
          1005.253577
          999.908308
          879.951218
          1132.961602
          998.910656
          1003.781100
          1032.219810
          917.968328
          500.000000
          1124.339908
          691.053514
          920.244903
          767.013465
          658.399065
          997.536677
          999.999163
          872.813936
          888.591500
          984.208165
          1003.757249
          1049.513405
          1077.018720
          1104.117208
          1000.007896
          999.331571
          1004.605484
          553.307852
          1001.247401
          854.126228
          976.310632
          1000.118191
          1000.379301
          1000.235640
          1009.415703
          967.453665
          760.097184
          831.248326
          999.248486
          998.901921
          1000.315344
          986.948203
          849.316304
          831.416086
          1002.850050
          1002.245223
          500.000000
          999.805477
          999.555436
          998.430833
          995.175797
          998.844340
          1001.871695
          834.980902
          1003.944763
          995.892103
          980.932993
          500.000000
          870.977747
          800.153425
          1035.745584
          877.029760
          883.948602
          993.324671
          1010.100339
          1013.296091
          1001.944234
          1036.354526
          1000.058701
          959.617862
          734.631749
          831.510894
          981.365701
          1013.113595
          767.891278
          951.900939
          946.173363
          1009.655868
          995.348233
          830.452815
          1000.839437
          1000.714235
          1000.800725
          1002.139747
          962.819207
          1001.848089
          1000.531334
          999.948227
          831.491900
          998.493161
          994.862929
          1000.526047
          999.736991
          618.094197
          953.690214
          717.125699
          757.894806
          856.312491
          1006.275450
          1000.007731
          1046.587557
          999.988789
          596.156508
          1000.452220
          841.010804
          990.656950
          822.051531
          711.086716
          971.785795
          903.623521
          632.338322
          852.765984
          829.676486
          1000.008135
          730.784958
          1007.451401
          1090.449028
          984.744459
          921.256604
          1000.959525
          1000.004213
          752.387308
          866.893217
          824.122789
          1039.726553
          949.423744
          1006.265646
          1000.986406
          999.997701
          999.948810
          831.148293
          997.377392
          994.845628
          1001.384083
          1000.206949
          1000.025662
          831.397313
          637.541361
          831.758664
          989.069048
          999.240924
          999.946892
          994.963251
          1000.311276
          984.528218
          1005.620417
          1000.124658
          996.292951
          827.072972
          999.740328
          831.511074
          999.921213
          1019.933748
          1001.994713
          830.451332
          783.406010
          839.471493
          756.454906
          770.205030
          758.737995
          1033.690265
          878.762500
          828.157119
          1000.012537
          831.204967
          999.954293
          1004.429461
          1001.975858
          828.515630
          999.948488
          985.419876
          1000.010244
          1084.039823
          1005.580502
          978.184178
          996.643028
          971.373861
          1000.024533
          831.384138
          909.165173
          831.177377
          994.813697
          1070.314268
          963.219724
          781.668711
          1019.740679
          831.398228
          773.269173
          791.676663
          747.480426
          744.548721
          831.011164
          991.042824
          910.556349
          859.413720
          1001.652998
          945.866286
          822.201188
          999.136020
          822.398609
          815.239015
          764.024271
          1000.687094
          1082.481646
          825.426376
          879.034474
          826.670659
          773.267648
          988.533558
          900.397230
          830.188424
          969.545990
          974.059650
          832.269317
          905.636967
          895.513705
          999.803109
          702.549243
          841.436959
          831.423129
          986.392120
          1079.294202
          1060.582386
          1001.877816
          910.895574
          926.272529
          945.709130
          839.580579
          831.368572
          901.255401
          870.360701
          931.737403
          1000.006174
          901.608496
          579.345936
          946.536181
          599.546411
          1061.643957
          993.962312
          1007.928255
          1000.029714
          1039.107672
          876.231017
          880.218773
          1008.560909
          953.867854
          616.751501
          1000.025591
          1000.005873
          601.280878
          999.991962
          1000.746944
          519.779656
          798.815984
          695.419902
          619.949510
          999.993474
          500.000000
          883.887104
          622.581820
          601.470420
          1002.106947
          1000.003557
          622.978159
          999.999119
          836.408022
          500.000000
          675.512102
          1000.028503
          826.245068
          1113.958684
          670.801166
          1002.013308
          748.158335
          991.800130
          834.830308
          623.683632
          1180.510225
          623.467456
          923.025299
          1000.056072
          803.689861
          903.620117
          959.620174
          956.268014
          747.995722
          1209.466973
          1012.878065
          1112.163601
          1154.104035
          826.431698
          742.765403
          955.065196
          865.888818
          983.060400
          798.298627
          877.406216
          500.000000
          893.546990
          1195.518933
          1054.354435
          933.295362
          920.534424
          645.159858
          1014.034285
          927.059489
          928.255492
          685.256204
          931.710875
          933.633760
          829.974776
          793.072221
          868.484102
          635.180077
          808.400739
          969.489045
          927.208998
          788.774946
          865.493259
          831.130709
          602.126224
          960.353930
          961.069421
          702.707475
          783.250187
          929.255043
          748.135070
          639.788295
          911.744873
          752.912842
        </DataArray>
        <DataArray type="Float64" Name="pressure" format="ascii">
          8050.697606
          -20470.913698
          -38143.229388
          -16499.920405
          -5583.097146
          836.249313
          1962.504269
          13539.093974
          8776.523914
          -26536.433246
          -2316.844475
          -2376.527040
          -13695.668236
          -16216.605317
          -13066.595491
          26307.418407
          -44795.410890
          -29474.515522
          -10145.169983
          -24475.593619
          -9402.692606
          27654.783834
          -60000.000000
          -8702.716522
          -5248.226337
          19479.983389
          18756.697183
          -31280.841946
          -5818.017862
          -29133.356298
          -8437.875956
          3010.710190
          -34949.383503
          -19487.026207
          -16652.212208
          -4404.557184
          -16760.354401
          -25564.783349
          -7005.457447
          -18926.997390
          -11158.726337
          -14022.989168
          -20116.995576
          -13729.586466
          14261.362983
          1895.566576
          -16575.242383
          -16299.012533
          -12532.242165
          1501.303828
          -6946.112622
          -45837.459592
          -517.450917
          -45672.974201
          -26831.848947
          -22.969552
          -4620.450979
          26.153872
          -34303.520430
          -8398.160034
          -22370.188647
          416.084342
          -22485.537877
          -3317.139084
          199.553147
          -2.265434
          -45693.762103
          9.440910
          11943.554903
          -1481.624300
          -17565.284694
          -10325.104621
          3220.741798
          8.957228
          -3625.956680
          -15359.911757
          -16957.056302
          -3317.299925
          -3039.577047
          -1.808176
          -48170.020562
          9.534607
          -12900.059832
          -1481.097029
          -9327.833378
          3.278538
          -4669.045324
          -1672.378174
          -51124.603983
          -5332.993065
          -20787.833083
          6216.408901
          -12132.933312
          -47915.170910
          -3138.550383
          -47385.027969
          -32962.711415
          -1743.040721
          -60000.000000
          -29694.132853
          -12239.345507
          -20226.273736
          -9791.845672
          2227.085290
          -11434.564120
          -18769.032424
          -21434.584987
          -31160.962755
          -17909.205307
          -33726.839219
          774.056334
          -18925.087647
          -37023.851793
          23.867413
          -4099.421628
          -20855.570805
          -24062.412095
          -40.684775
          -7185.717099
          -20236.492540
          -49100.315692
          -23544.847256
          6855.046858
          -31356.009227
          -7153.926780
          -22020.503680
          -19468.558881
          -3682.558833
          9880.490569
          -6749.253333
          -30606.959683
          -1643.830480
          -17234.242845
          -20345.577459
          -20240.348177
          -4750.032385
          -5438.591827
          -1969.534275
          -4327.378166
          -46702.271600
          -14261.297881
          -18441.029012
          -25735.816335
          -20219.245753
          -29358.691766
          -18523.059158
          -20075.317949
          -493.003459
          48.755144
          -20226.580061
          8665.685712
          -20269.368004
          710.538642
          -181.115360
          -40.740362
          0.404365
          -40.318659
          -13100.780089
          674.490693
          9.325511
          442.052339
          -20188.621830
          -20.690752
          -20551.919775
          -130.796257
          1519.099886
          235.448600
          -21285.346307
          12005.407006
          -33842.482864
          -60000.000000
          -6335.341836
          619.307374
          3265.532508
          -6625.731220
          -20262.553783
          1.190470
          -20240.349652
          59.810117
          -5251.927901
          196.226003
          -21044.281461
          -5.992195
          -5060.929941
          1.218919
          -60000.000000
          646.430142
          127.325933
          -3527.111903
          3495.486793
          2.811483
          -20219.328508
          -3641.763551
          -20276.236454
          -5309.502359
          -4700.591780
          18.212311
          -50.161771
          -41.053913
          -20269.221871
          274.278359
          -619.753149
          -204.353945
          -56.090208
          -15993.286439
          -9825.786700
          -2584.137128
          -50651.709151
          -44688.219679
          759.543197
          -8.227235
          -10353.227393
          -605.380295
          -29451.425711
          294.232551
          2650.149567
          -144.974505
          -20266.900819
          -10364.049494
          7521.370945
          -15770.109996
          -27704.676306
          20582.445570
          -20897.884281
          1.017113
          -25630.720331
          -2364.778229