<?xml version="1.0"?>
<VTKFile type="PolyData" version="0.1" byte_order="LittleEndian">
  <PolyData>
    <Piece NumberOfPoints="686" NumberOfVerts="686" NumberOfLines="0" NumberOfStrips="0" NumberOfPolys="0">
      <Points>
        <DataArray type="Float64" NumberOfComponents="3" format="ascii">
          -0.847691 -0.019176 23.917565
          -0.568337 0.051576 24.067850
          -0.159242 -0.049325 24.157877
          -0.489886 -0.592935 24.029933
          -0.384570 -0.559368 23.884862
          -0.547360 0.082276 24.128562
          -0.075207 0.173665 24.431598
          -0.911527 -0.054678 23.851771
          -0.310094 -0.348169 23.978339
          -1.480311 -0.076953 24.141702
          -0.703728 -0.058709 23.914650
          -0.159238 -0.051335 24.105443
          -1.353569 -0.041558 23.972521
          -1.446173 -0.056943 25.025800
          -1.101999 -0.029257 23.920795
          0.020864 -0.095563 23.683603
          0.231006 -0.149527 24.312916
          -1.472706 -0.069044 24.257456
          -0.326674 -0.061953 24.615007
          -0.387131 -0.103945 24.025658
          -1.428541 -0.062206 24.985515
          -1.306984 -0.016281 23.907179
          -0.136173 -0.032074 22.955036
          -1.311209 -0.041599 23.891591
          0.047261 -0.059267 23.538336
          -1.078291 -0.042342 23.920124
          -0.403161 -0.142449 24.028018
          -1.394205 -0.092591 24.292901
          -1.307879 -0.004268 23.924590
          -0.327354 -0.241467 23.954584
          -0.412757 -0.082909 24.390824
          -1.266273 -0.078276 23.976738
          -0.316337 0.037583 24.659990
          -0.488746 0.039845 24.184987
          -1.426947 -0.048949 24.990311
          -0.637647 -0.092725 23.963268
          -0.120508 -0.119313 24.048010
          -1.403087 0.039875 24.192428
          -0.790419 -0.094146 23.880944
          -0.031583 0.209232 23.928371
          -1.298273 -0.051749 24.178486
          -1.446118 -0.050645 25.025874
          -0.910629 -0.040167 23.922517
          -0.464120 0.307255 24.184861
          -0.365352 0.047190 24.393070
          -0.219173 -0.253211 23.710494
          -0.171418 0.361414 23.974490
          -0.269746 0.252714 24.208568
          -0.360129 0.125410 24.329596
          -0.184290 -1.947352 22.296520
          -0.516989 -0.531892 23.897836
          -5.753749 -3.590395 23.987526
          -0.198568 -0.288843 24.516786
          -5.753680 -3.590018 24.024355
          -0.129746 0.249831 24.216944
          0.083936 -0.998897 24.700311
          -0.477334 0.350973 24.208538
          -3.280475 -1.743831 22.519854
          -0.342566 -0.568273 24.030726
          0.335776 -0.324091 24.032069
          0.035787 -0.083226 24.337998
          -2.879152 -1.771180 25.705477
          -1.332869 0.016128 24.270533
          -5.753882 -0.068444 20.465553
          -0.523988 -1.288524 23.658047
          -4.011772 -0.027856 23.988928
          -5.765799 -3.639456 24.006457
          -4.010382 -0.068602 23.999378
          -0.101910 -0.337939 24.057602
          -5.753572 -0.068433 27.546057
          -0.652685 -0.034896 22.937557
          -0.218985 -0.068891 22.958528
          -5.765913 -0.050000 20.416504
          -3.995979 -0.049992 24.018960
          -5.765634 -0.050000 27.595230
          -0.564925 -0.065992 24.093579
          -0.013475 -0.023599 24.693239
          -5.753882 -0.031556 20.465553
          -0.095585 0.901562 23.432358
          -4.011773 -0.072149 23.988937
          -5.765799 3.539456 24.006457
          -4.010380 -0.031401 23.999394
          -0.234696 0.301980 23.974570
          -5.753572 -0.031567 27.546057
          0.035241 -0.024803 23.764400
          -3.280151 1.643602 22.519566
          -0.573122 -0.094166 24.003692
          -0.185452 0.708533 24.331890
          -0.173170 -0.120149 24.499461
          -2.911161 1.734855 25.833817
          -1.334476 -0.027661 24.299236
          -0.001880 1.744726 22.219450
          -0.136677 -0.108046 24.272222
          -5.753749 3.490395 23.987526
          0.297756 -0.104107 24.944321
          -5.753680 3.490018 24.024355
          0.055544 0.460076 24.071509
          -0.302178 0.984350 24.562915
          -0.075432 -0.154055 24.197481
          -0.283823 0.321249 24.073573
          -0.133474 -0.048808 22.968122
          -2.842837 -2.537495 24.003239
          -1.368780 -0.140034 24.133759
          0.093386 -0.255267 24.103943
          -0.112696 -0.194826 24.457070
          -0.197422 -0.110612 22.916972
          -3.181369 -2.339961 21.521655
          -0.269602 -0.232080 23.730785
          -0.667637 -0.097456 23.988842
          0.288609 -0.078134 24.582422
          -2.835606 -1.873427 25.852045
          0.041553 -0.350381 23.931274
          -0.423946 0.073015 24.331529
          0.561914 -1.105468 23.721855
          -0.181368 -0.070354 23.671110
          -0.150824 -0.166996 24.636330
          0.164932 -0.084128 24.464605
          -0.309632 -0.993730 24.905391
          -0.480427 -0.639464 23.973848
          -2.840684 -0.046999 16.323208
          -0.985322 -0.003942 23.882276
          -0.067398 0.160379 24.124134
          -0.728447 0.011352 23.025036
          -0.353809 -0.371312 23.991044
          -1.425931 -0.030783 25.004303
          -2.845644 -0.051683 31.691622
          -0.749483 -0.098243 23.908434
          -0.155696 0.870099 23.624700
          -0.463939 -0.593070 23.875190
          -0.238543 0.045530 24.609127
          -0.007712 0.163858 24.496673
          -0.244120 0.887624 24.630440
          -0.346185 0.384804 24.063295
          -0.208043 -0.091859 22.896548
          -3.183796 2.249860 21.526231
          -0.089554 -0.065040 24.329573
          -0.404830 0.428848 24.147719
          -0.211860 0.083161 24.293714
          -2.819856 1.671014 25.704193
          -0.167653 0.356271 23.949986
          0.358609 0.360834 24.182918
          -0.055239 -0.101546 24.807778
          -0.141228 -0.045416 22.897314
          -2.840153 2.274921 24.002229
          -1.465836 -0.137749 24.173330
          -0.454952 0.340508 24.230834
          -0.326723 0.261177 24.212942
          -0.564474 -1.277055 23.748899
          -3.314810 -1.728911 22.545868
          -2.842854 -2.531373 24.003990
          -0.110679 -0.394209 24.062420
          -2.840108 -2.531587 24.009346
          -2.927982 -1.799026 25.728403
          0.199195 -1.049595 24.778744
          -3.291731 -1.712502 22.537860
          0.256187 -1.864180 22.128228
          -0.181783 -2.794113 21.302354
          -0.157528 0.081308 23.583536
          -0.459215 -2.825721 26.733678
          0.292992 -1.121862 24.745603
          -2.924888 -1.829151 25.712365
          -2.845772 -0.043098 16.308433
          -0.172082 -2.762331 21.274888
          -3.200591 -2.349926 21.528059
          0.006625 -3.232006 23.950792
          -2.822709 -1.794568 25.855537
          -0.537719 -2.755070 26.718469
          -2.838976 -0.045137 31.691447
          -0.610011 -0.056698 23.026420
          -0.228627 -0.102477 24.354914
          -0.020598 -0.000614 20.991822
          -0.310721 0.065424 24.613706
          0.090026 -0.071463 27.182724
          -0.193946 -0.286835 24.585548
          0.292362 -0.084520 24.666043
          -2.841655 -0.051525 16.314796
          -0.139183 2.702720 21.275724
          -3.189096 2.242852 21.533337
          0.136802 3.227425 24.002005
          -2.852799 1.788268 25.844457
          -0.537707 2.655062 26.718458
          -2.845667 -0.051362 31.690795
          -3.291912 1.612545 22.538303
          0.125076 1.879814 22.096680
          -0.210443 2.635297 21.265593
          0.013122 -0.030885 23.543790
          -0.459213 2.725722 26.733688
          -0.235319 1.036646 24.657992
          -2.853926 1.638331 25.747971
          -0.136629 0.947845 23.621058
          -3.314689 1.628705 22.545460
          -2.844346 2.289124 24.005197
          -0.198294 0.680064 24.326535
          -2.843404 2.263568 24.005605
          -2.851322 1.795761 25.716513
          -0.303780 0.943338 24.623206
          0.547359 -1.097940 23.734660
          0.127158 -2.743997 21.283068
          -3.276123 -1.721615 22.518821
          -2.844510 -2.545217 24.002694
          -2.866169 -1.890169 25.831800
          -0.525958 -2.793276 26.697967
          0.098274 -1.046119 24.786091
          -0.239474 -2.823538 21.238458
          0.130740 -0.201227 23.684661
          -0.278251 -0.518285 23.978768
          -0.509814 0.053596 24.055067
          -0.361031 -0.052646 24.354502
          0.009449 -0.088609 24.853843
          -0.452049 -2.817101 26.752724
          -3.287657 -1.741513 22.549323
          -0.360365 -0.099561 23.981515
          -0.162827 -1.753597 22.251415
          -0.133691 -0.009206 24.194556
          -0.064947 -1.065521 24.776387
          -1.411437 -0.112015 24.093201
          -2.778408 -1.852885 25.722731
          -2.841468 -0.058378 16.326145
          -0.655738 -0.045016 22.945966
          -0.714578 -0.001347 23.055950
          0.250434 0.040071 23.984263
          -0.345274 -0.125147 23.970102
          -0.545333 0.045304 24.181514
          -2.840757 -0.051818 31.693144
          -3.288047 1.641622 22.549598
          -0.124012 -0.087789 23.884877
          -0.177216 1.724097 22.169941
          -0.020172 0.157901 23.739772
          0.499270 0.958007 25.125914
          -1.387178 0.051421 24.244030
          -2.781908 1.659562 25.752229
          -0.192059 2.724876 21.235709
          -0.152551 0.071629 23.480234
          -0.480705 0.384227 24.146711
          -0.044823 0.220933 23.792595
          -0.450178 -0.000669 24.267378
          -0.042614 -0.187243 24.728017
          -0.452043 2.717096 26.752718
          -0.074841 0.898109 23.630263
          0.095412 2.662300 21.273230
          -3.275995 1.621895 22.518801
          -2.842406 2.271852 24.006252
          -2.803969 1.675738 25.827812
          -0.525975 2.693278 26.697978
          -0.140379 1.008504 24.553877
[...]
      <PointData Scalars="density">
        <DataArray type="Float64" Name="density" format="ascii">
          981.045900
          1008.082276
          1046.281169
          985.871584
          994.732837
          981.368075
          970.816156
          994.673926
          1019.575668
          988.593086
          1010.727173
          994.597702
          990.691992
          999.550689
          978.930397
          1007.725815
          1038.135970
          1020.164273
          1019.897958
          1019.369762
          997.340593
          999.774307
          999.480662
          967.422234
          997.753434
          1004.104996
          1029.391299
          1008.311503
          999.008559
          975.075173
          931.570796
          1020.911162
          994.400104
          1017.874148
          1008.456395
          1003.322800
          996.574326
          1025.058244
          987.178179
          1031.027774
          975.202939
          1000.520431
          1036.125277
          1014.338883
          1003.465854
          945.830499
          1007.713715
          989.223301
          986.000312
          997.385100
          994.646516
          590.786683
          980.499174
          590.785266
          990.886985
          996.999750
          993.459704
          1001.709549
          968.739605
          1049.156795
          979.962949
          1012.932419
          1021.322062
          590.967399
          1022.993161
          996.947176
          573.017632
          1007.113903
          1014.735976
          590.842084
          975.798073
          1001.704161
          573.356536
          999.048460
          573.117582
          1008.854686
          1031.030304
          590.967399
          963.558215
          996.945115
          573.017632
          1007.117810
          1019.361176
          590.842084
          1047.958488
          1001.438711
          987.028353
          985.345339
          1042.037817
          1010.141792
          984.255587
          1082.860614
          1039.413529
          590.786683
          979.700669
          590.785266
          981.579785
          1013.011881
          955.515870
          1050.497487
          996.497533
          829.221224
          969.577043
          972.819163
          1014.565864
          1006.951287
          817.005376
          919.407920
          1002.209720
          1024.423815
          1004.281690
          1024.284844
          987.767416
          978.863449
          1041.224452
          999.755351
          989.791325
          1002.492349
          1006.799883
          828.243382
          1029.272812
          1026.286440
          995.937661
          971.194945
          1003.096239
          829.705102
          1029.334055
          1018.581177
          989.867444
          969.624526
          1046.372775
          1000.935881
          992.158347
          994.145306
          828.518505
          1014.353600
          976.488396
          982.793089
          1000.923752
          978.737074
          970.849143
          968.501920
          1008.388997
          824.202120
          972.074224
          979.073334
          984.531493
          1001.151378
          991.253267
          828.446465
          974.406421
          826.079321
          996.131631
          993.699568
          1008.968761
          977.965265
          1013.863298
          1031.946763
          997.849065
          1017.651607
          983.237294
          828.583886
          996.477200
          815.876410
          978.307863
          997.290860
          993.462105
          828.629481
          997.338119
          960.129350
          998.182036
          991.587136
          996.201671
          975.852823
          992.807004
          827.370999
          994.506141
          829.489019
          989.763851
          986.615257
          993.458732
          827.443610
          1008.918816
          1024.681280
          1010.549991
          971.934027
          997.843067
          1019.684634
          997.684466
          990.041474
          991.785204
          825.722338
          988.522110
          826.766573
          992.428108
          998.680458
          994.503344
          984.047211
          1002.286607
          825.688747
          994.808934
          1004.092818
          1014.425015
          1011.625474
          990.330787
          959.341363
          949.736765
          1098.404810
          1023.462721
          997.605963
          1006.484273
          976.655928
          983.370807
          1040.542197
          974.057206
          1001.252750
          969.870861
          829.808742
          1016.590234
          1008.039917
          985.744335
          1007.663826
          1000.443545
          828.581846
          1006.174045
          950.821289
          969.625252
          1048.120880
          994.642933
          976.735815
          969.703472
          1004.375425
          942.699479
          1007.533908
          931.185221
          967.292452
          1016.800351
          997.600150
          999.581076
          1014.495668
          1002.323927
          825.262029
          998.393887
          1004.090474
          1002.250457
          1011.679070
          801.250789
          974.905985
          987.423077
          1013.592571
          992.772301
          947.956687
          816.732942
          994.459113
          981.376253
          1014.874707
          1014.253982
          981.917880
          1007.226246
          985.827180
          989.179377
          1000.221516
          998.394413
          994.930882
          1006.039687
          1018.493330
          1001.454821
          973.365647
          1001.709842
          970.725348
          997.047443
          962.228669
          999.095541
          1010.680269
          969.868848
          1008.453583
          996.288951
          1005.458496
          998.375250
          999.288632
          829.619937
          1021.985078
          1018.102574
          968.619660
          987.544127
          986.788042
          992.381097
          1014.745770
          828.656371
          1006.303413
          981.925724
          999.539331
          1009.442614
          987.002141
          1005.923866
          1013.120076
          984.047977
          1005.678748
          1000.189534
          1024.223896
          1004.842135
          976.752906
          994.729966
          991.618688
          966.319392
          1013.732935
          1052.439082
          1018.055260
          1007.295214
          1005.003102
          946.741922
          974.518723
          1004.743390
          1002.977417
          985.806812
          1006.180875
          995.543782
          1020.487698
          991.417878
          964.697999
          975.058039
          976.966512
          1004.902800
          1011.703617
          1000.716398
          977.032389
          996.571515
          1002.975057
          1032.092464
          993.687626
          965.449224
          995.077403
          1000.526252
          1013.733617
          955.597743
          995.509586
          984.930439
          985.683633
          1008.297228
          1001.273027
          999.576637
          1005.028695
          963.339890
          985.217112
          982.351508
          981.761135
          999.242510
          1009.316400
          993.203263
          972.015679
          982.552961
          1041.238763
          990.695907
          990.126660
          1013.733739
          1003.065625
          995.952438
          1000.938533
          1002.264105
          974.528199
          987.279783
          994.645270
          1002.978309
          1022.547439
          992.784960
          991.206882
          1010.887885
          1018.969533
          1037.806621
          966.683913
          1011.619695
          990.721279
          1011.771529
          986.233827
          1011.313779
          1028.507570
          1002.976435
          1005.690198
          1007.953020
          921.056540
          995.169610
          991.739233
          1013.734343
          1011.548872
          990.406538
          1012.433347
          975.185347
          997.721998
          1006.401928
          1003.722662
          1022.484534
          1008.552337
          992.646793
          803.187585
          980.500334
          1026.289222
          1014.848121
          993.818417
          985.476047
          796.543230
          1004.844041
          991.977884
          1048.875247
          983.068840
          990.126096
          958.984408
          1004.619228
          1001.324577
          999.482459
          1027.221115
          994.806504
          1012.509669
          1007.606954
          969.491372
          1059.918572
          988.139511
          1012.498948
          991.526344
          1014.592292
          1019.211876
          988.234376
          1007.958227
          1003.203070
          983.945752
          995.940076
          1019.815451
          981.093461
          812.522327
          953.457446
          939.439573
          1018.777782
          980.237119
          978.779800
          1003.930899
          973.005105
          822.949615
          992.338672
          998.062661
          1001.898075
          996.817401
          997.264838
          1021.830333
          983.143598
          1002.321672
          819.768801
          990.626383
          1004.094053
          979.747885
          1002.776409
          989.187575
          990.407129
          960.887615
          1034.806418
          948.453827
          997.616198
          1006.185589
          959.808937
          987.134893
          989.630023
          995.379880
          1026.488689
          1010.137507
          816.150449
          1009.136199
          1013.223470
          1005.806319
          967.990691
          960.682660
          794.320449
          1006.180585
          951.483147
          1032.682072
          1076.974399
          983.772299
          1012.073062
          993.797131
          1004.234817
          1024.357090
          1015.489338
          1003.562444
          1042.251830
          991.489854
          997.608528
          974.219837
          1014.114426
          1002.323090
          827.889820
          1002.959938
          1004.091591
          1000.177997
          1007.517623
          991.767143
          827.766630
          973.341927
          824.163491
          995.110880
          1005.838609
          1008.919559
          1055.104515
          1015.834160
          956.506065
          997.861883
          1003.501942
          1015.356140
          817.737654
          998.484339
          806.854726
          1009.347582
          997.624076
          993.468480
          815.323444
          999.809162
          1017.322142
          995.919024
          966.504999
          1014.291689
          966.461977
          969.846523
          792.389502
          994.912080
          818.194720
          1005.484768
          971.737831
          993.464006
          817.746802
          1008.919790
          948.229188
          1010.325731
          981.513981
          997.853588
          1016.155232
          1025.608757
          1004.763719
          991.774474
          829.799709
          996.454268
          828.195442
          1016.104442
          1035.001044
          1031.280408
          998.341773
          997.759189
          828.457934
          1017.316867
          964.585154
          1023.001935
          1013.190059
          802.926408
          993.341561
          992.854044
          1038.916018
          1003.791999
          1007.823224
          980.582522
          1004.326542
          967.748392
          949.140101
          995.632915
          1010.465138
          948.672909
          820.101770
          1067.650462
          922.278526
          991.445735
          956.103699
          995.399575
          818.781256
          968.701115
          978.278403
          1012.879735
          1012.703497
          1004.446482
          999.969903
          1009.344913
          1000.133977
          825.708706
          990.146568
          1007.184282
          940.100600
          961.442965
          961.490764
          998.777647
          1025.192521
          1016.324275
          829.545827
          968.775861
          1006.918070
          1007.909000
          980.359110
          962.271653
          590.786683
          979.888863
          590.785266
          988.388161
          1010.537395
          971.609557
          1001.447343
          893.919817
          982.797552
          953.178310
          1049.097316
          1059.274455
          590.967399
          1009.163171
          1002.180471
          573.017632
          1001.605396
          1043.631914
          590.842084
          1003.557964
          988.401901
          573.356536
          993.707891
          573.117582
          988.959751
          1008.251473
          590.967399
          1017.675402
          1002.540053
          573.017632
          1001.826242
          987.701965
          590.842084
          971.496247
          1001.444373
          992.871976
          1005.601655
          990.158584
          965.737939
          1070.483489
          972.030861
          1016.403743
          590.786683
          1046.958679
          590.785266
          1014.909680
          980.169858
          991.908186
          981.394033
          1042.471030
          1054.129494
          959.743495
          940.954769
          1011.638494
          977.408447
          967.594991
          891.973148
          983.263793
          959.794661
          1006.337422
          1004.537627
          949.996794
          937.786096
          996.328085
          874.303436
          988.506470
          973.168708
          1007.463081
          1003.010248
          1013.801383
          972.282606
          966.930025
          991.527208
          968.097327
          971.423733
          915.539357
          990.062673
          989.403194
          948.405497
          1030.500718
          1016.057211
          998.547330
          980.102333
          1001.528292
          1050.146732
          1028.500505
          1041.930230
          956.632513
          1003.402584
          952.850125
          938.617978
          976.431339
          997.147400
          957.667067
          988.001551
          991.474069
        </DataArray>
        <DataArray type="Float64" Name="pressure" format="ascii">
          -2274.492037
          969.873135
          5553.740256
          -1695.409913
          -632.059511
          -2235.831009
          -3502.061314
          -639.128847
          2349.080137
          -1368.829647
          1287.260778
          -648.275729
          -1116.960923
          -53.917369
          -2528.352322
          927.097831
          4576.316439
          2419.712770
          2387.754938
          2324.371499
          -319.128792
          -27.083115
          -62.320510
          -3909.331943
          -269.587940
          492.599467
          3526.955851
          997.380330
          -118.972873
          -2990.979239
          -8211.504533
          2509.339447
          -671.987575
          2144.897786
          1014.767457
          398.735998
          -411.080835
          3006.989289
          -1538.618504
          3723.332832
          -2975.647294
          62.451715
          4335.033288
          1720.665987
          415.902533
          -6500.340177
          925.645859
          -1293.203906
          -1679.962586
          -313.787946
          -642.418135
          -49105.598040
          -2340.099175
          -49105.768069
          -1093.561791
          -360.030023
          -784.835480
          205.145845
          -3751.247427
          5898.815439
          -2404.446100
          1551.890328
          2558.647432
          -49083.912105
          2759.179314
          -366.338838
          -51237.884190
          853.668301
          1768.317133
          -49098.949883
          -2904.231287
          204.499281
          -51197.215711
          -114.184857
          -51225.890148
          1062.562357
          3723.636537
          -49083.912105
          -4373.014180
          -366.586233
          -51237.884193
          854.137258
          2323.341061
          -49098.949883
          5755.018565
          172.645288
          -1556.597673
          -1758.559314
          5044.538010
          1217.014993
          -1889.329603
          9943.273645
          4729.623438
          -49105.598040
          -2435.919707
          -49105.768069
          -2210.425808
          1561.425774
          -5338.095600
          6059.698433
          -420.295994
          -20493.453171
          -3650.754792
          -3261.700492
          1747.903650
          834.154428
          -21959.354865
          -9671.049577
          265.166422
          2930.857816
          513.802747
          2914.181253
          -1467.910107
          -2536.386061
          4946.934276
          -29.357916
          -1225.040989
          299.081927
          815.985912
          -20610.794210
          3512.737472
          3154.372811
          -487.480679
          -3456.606602
          371.548644
          -20435.387741
          3520.086592
          2229.741201
          -1215.906723
          -3645.056910
          5564.732954
          112.305693
          -940.998381
          -702.563318
          -20577.779355
          1722.432033
          -2821.392483
          -2064.829306
          110.850197
          -2551.551165
          -3498.102879
          -3779.769620
          1006.679633
          -21095.745625
          -3351.093089
          -2511.199901
          -1856.220816
          138.165370
          -1049.607919
          -20586.424255
          -3071.229538
          -20870.481489
          -464.204297
          -756.051861
          1076.251322
          -2644.168247
          1663.595712
          3833.611523
          -258.112237
          2118.192857
          -2011.524754
          -20569.933632
          -422.735955
          -22094.830770
          -2603.056483
          -325.096811
          -784.547410
          -20564.462259
          -319.425686
          -4784.477965
          -218.155715
          -1009.543643
          -455.799468
          -2897.661204
          -863.159563
          -20715.480064
          -659.263072
          -20461.317700
          -1228.337894
          -1606.169103
          -784.952174
          -20706.766760
          1070.257978
          2961.753571
          1265.998909
          -3367.916737
          -258.831944
          2362.156024
          -277.864130
          -1195.023123
          -985.775481
          -20913.319438
          -1377.346755
          -20788.011293
          -908.627075
          -158.345017
          -659.598722
          -1914.334644
          274.392842
          -20917.350327
          -622.927869
          491.138125
          1731.001824
          1395.056898
          -1160.305581
          -4879.036499
          -6031.588231
          11808.577194
          2815.526563
          -287.284393
          778.112807
          -2801.288671
          -1995.503207
          4865.063613
          -3113.135255
          150.330058
          -3615.496705
          -20422.950999
          1990.828065
          964.789983
          -1710.679752
          919.659087
          53.225377
          -20570.178529
          740.885450
          -5901.445356
          -3644.969775
          5774.505645