<?xml version="1.0"?>
<VTKFile type="PolyData" version="0.1" byte_order="LittleEndian">
  <PolyData>
    <Piece NumberOfPoints="396" NumberOfVerts="396" NumberOfLines="0" NumberOfStrips="0" NumberOfPolys="0">
      <Points>
        <DataArray type="Float64" NumberOfComponents="3" format="ascii">
          -0.261246 -0.093540 7.439896
          -0.397297 -0.040705 7.602348
          -0.218757 -0.182401 7.314777
          0.784770 1.980060 -0.372709
          -0.274149 -0.582845 1.846241
          0.727128 0.388285 7.265570
          0.521747 1.727030 -0.378177
          -0.514262 -1.723140 7.049657
          -0.321017 -0.209740 7.389137
          1.320238 -0.423760 1.859504
          0.152090 -0.378521 1.864681
          -0.246680 -0.364269 7.047098
          0.228577 2.351479 7.418140
          -0.220931 -0.149515 7.443933
          0.438217 -0.608011 1.857932
          0.321162 2.499322 7.501626
          -0.581720 0.215153 7.530382
          1.691401 -0.295827 1.856196
          -0.679295 -1.689590 7.077208
          -0.814745 0.541796 7.307634
          -0.761735 1.068550 -0.185452
          -0.500306 -1.757826 7.178944
          0.722378 0.278221 7.434418
          1.605294 -0.219057 1.850462
          -0.017929 -0.746087 1.865798
          0.299970 2.491485 7.543949
          0.343496 0.321916 7.094160
          0.450980 -0.603618 1.858866
          -0.908945 1.667877 0.697086
          -0.413243 0.237597 7.380939
          0.007453 -0.802089 1.852038
          -0.495181 -0.121025 7.399780
          -0.322481 -0.409892 7.040778
          -0.166340 -0.656878 1.853906
          -1.004423 1.695305 0.657859
          0.886466 -1.870560 7.516145
          1.535246 -0.273208 1.865135
          -0.865651 0.538079 7.348612
          -0.235558 -0.396897 7.019273
          -0.553616 0.307586 7.252327
          -0.428780 -1.801341 7.246998
          -0.697910 -1.721667 7.047405
          -1.713671 -0.299815 1.860263
          -0.308250 -0.455850 7.037150
          0.652356 -2.056616 7.723093
          1.341951 -0.439863 1.859925
          0.083202 0.329988 7.646218
          -0.517981 -2.012374 7.263658
          -0.683816 -1.712802 7.044362
          0.188691 0.129527 7.594612
          -0.819196 1.623181 0.648483
          -1.491914 -0.129311 1.855538
          0.691890 0.153701 7.482400
          -0.538653 0.304063 7.312922
          -0.743679 0.122137 7.395771
          -0.333870 0.360753 7.342076
          -0.523570 -2.052334 7.307268
          -0.701663 1.073406 -0.190732
          -0.453230 0.297422 7.339837
          0.153578 0.405328 7.615290
          -1.523230 -0.079856 1.865814
          0.373998 0.174410 7.645991
          0.517817 1.291597 7.463972
          1.465293 -0.568463 1.865927
          -0.271055 -0.342562 7.043744
          -0.713191 0.366693 7.253465
          1.622120 -0.206560 1.849050
          0.745615 0.272967 7.498856
          -0.252075 -0.391978 7.085118
          -0.372519 -2.059249 7.307525
          -0.926145 0.496907 7.425417
          0.324826 2.460232 7.540991
          4.888233 -1.626461 5.747540
          0.359748 0.164440 7.568250
          1.373428 -0.362835 1.859250
          1.589459 -0.234345 1.852150
          -1.409731 -0.113875 1.849662
          3.568443 0.148770 4.758495
          0.384033 0.146736 7.410919
          -0.697564 -0.024943 7.544491
          0.131688 0.165423 7.655669
          -0.693434 0.270867 7.294567
          -0.889480 1.689092 0.637882
          -0.914091 0.456356 7.453039
          0.334285 0.536006 7.735342
          -0.076149 -0.792512 1.865814
          0.695681 -1.976039 7.715857
          0.541188 1.265028 7.665155
          0.437517 0.183357 7.264768
          -0.857966 1.671724 0.673511
          0.586453 1.325800 7.520275
          0.749715 1.676439 -0.338886
          0.653063 1.293333 7.563235
          0.734742 -1.715440 7.458751
          -0.312780 -0.309347 7.453088
          -0.317351 -2.021323 7.420894
          0.261115 0.125592 7.453947
          -0.561505 -2.044620 7.345508
          -0.003028 0.235193 7.436795
          0.681578 0.388554 7.240806
          0.462722 -0.575219 1.857627
          -0.393291 -2.157622 7.382074
          3.076971 1.494641 5.687744
          0.258708 2.345614 7.677599
          1.576259 -0.219167 1.850845
          1.352651 -0.450377 1.860058
          -0.754644 1.102082 -0.156407
          3.504919 0.349525 4.754532
          -0.323451 -0.349955 7.054194
          -0.640706 -1.670797 7.027635
          -0.751345 1.064837 -0.202007
          -0.422463 -1.734633 7.202141
          -0.514432 0.125733 7.419581
          -0.971583 1.693258 0.667471
          -1.529066 -0.147033 1.852567
          0.376828 -0.544469 1.856998
          -0.185496 -0.031173 7.532502
          -0.165777 -0.273929 1.866695
          -0.059593 -0.304724 1.847466
          -0.698983 0.029521 7.578861
          -0.864829 0.531637 7.235867
          -0.670864 0.034644 7.615819
          -0.185667 0.036131 7.366338
          -0.415878 -0.198051 7.510373
          -0.659221 0.018310 7.581624
          0.161833 0.174249 7.603550
          -0.700470 -1.740279 7.166316
          -0.408464 0.031481 7.385370
          0.433245 0.495956 7.516660
          -0.470717 -1.846232 7.346011
          -0.860163 0.563112 7.386722
          -0.218513 -0.137777 7.559614
          -1.492635 -0.392725 1.859398
          -0.899309 1.643829 0.676271
          -0.593090 -0.506913 1.853134
          -0.111512 -0.796394 1.865814
          -0.757583 1.102528 -0.123737
          -0.708085 0.189910 7.405275
          -1.020522 0.459641 7.228311
          -0.700413 0.292178 7.394328
          -0.016883 -0.829308 1.849790
          -0.784571 1.045094 -0.112270
          -0.700013 -1.810520 7.028194
          -0.036346 -0.682355 1.858250
          4.895180 -1.724249 5.767555
          -0.060439 -0.528259 1.860617
          -0.561173 -1.792752 7.069692
          0.382298 -0.609234 1.859330
          0.551013 0.432547 7.421569
          5.530537 -0.385135 4.737468
          0.431535 1.433980 7.606752
          1.395973 -0.454716 1.860718
          0.577176 0.391961 7.509339
          -0.688992 -1.738976 6.997170
          0.536457 0.101987 7.336326
          0.887684 1.890303 -0.342475
          -0.239603 -0.143039 7.576078
          -0.605871 -0.390603 1.858704
          0.349258 2.354454 7.519923
          0.705036 0.317287 7.330204
          -0.610866 -0.450658 1.859986
          -0.497150 -1.984613 7.337990
          -0.971628 1.645460 0.698386
          0.170469 2.503276 7.481488
          0.855735 -1.685834 7.451496
          -0.311785 -0.267072 7.413512
          -0.481008 -0.494968 1.854184
          0.566909 1.302142 7.536069
          -0.929533 0.534416 7.245110
          1.357974 -0.598026 1.865814
          0.451838 0.426710 7.631496
          0.474944 1.404152 7.708106
          0.811452 -1.907831 7.442335
          -0.346296 -0.528318 1.857223
          3.081020 1.487784 5.716321
          -0.771190 1.070141 -0.260580
          0.462461 1.518007 7.585557
          -0.905590 1.642222 0.666425
          0.664740 -2.113419 7.639582
          3.553611 0.255124 4.758141
          1.441415 -1.220243 7.815326
          0.240103 0.277421 7.349937
          -0.396931 0.118211 7.337581
          -0.576578 -0.441892 1.856054
          0.625035 0.132197 7.518981
          0.425875 1.305592 7.567778
          -0.000001 -3.105400 5.874178
          0.415180 -0.630353 1.858849
          -0.181484 -0.207860 7.361697
          -0.014498 -0.256660 1.856726
          0.703843 -2.130404 7.532120
          1.422453 0.242823 5.995249
          0.317270 2.389658 7.636486
          -0.232055 0.366141 7.330332
          0.361670 0.485782 7.749031
          0.430969 1.354362 7.625599
          -0.689040 -0.422969 1.865814
          0.558523 1.222377 7.489805
          0.745101 -1.777337 7.446949
          -0.571556 -0.403093 1.858939
          0.409878 0.114463 7.621292
          -0.405462 -0.592654 1.856268
          0.530802 1.806394 -0.358108
          -0.453099 -2.068464 7.411341
          0.000001 3.105400 5.874179
          -0.919917 1.685262 0.662373
          0.313030 0.352960 7.262971
          -0.563154 -0.496345 1.860415
          0.476938 1.446593 7.597098
          0.470614 1.200922 7.441669
          0.058292 2.204041 7.207905
          0.640163 0.294519 7.279940
          -0.670418 -0.437428 1.855515
          -0.110899 -0.260727 1.858351
          -0.036004 -0.873778 1.854298
          -0.362729 -2.015243 7.346542
          -3.583122 0.074398 5.741341
          0.187829 -0.616897 1.866593
          -0.331782 -2.076127 7.382048
          0.379109 -0.468931 1.858932
          -0.107426 0.267734 7.309077
          -3.389836 -0.063871 4.854181
          0.156773 2.369155 7.508111
          -1.432686 -0.160958 1.856063
          -0.264901 0.336643 7.360388
          0.584241 -1.934075 7.671164
          -0.602157 0.088053 7.652698
          -0.770422 1.053772 -0.177284
          -0.224430 -0.420910 1.860172
          0.026803 -0.209210 1.856140
          0.326143 2.403595 7.443548
          -0.179597 0.141342 7.312063
          0.010548 -0.213253 1.849706
          -0.476422 -1.774461 7.274327
          0.815802 1.669938 -0.354894
          0.304102 0.331757 7.361376
          -0.409340 -1.839562 7.343786
          -0.464981 -0.045847 7.649748
          -0.633502 -0.446099 1.855972
          0.178820 2.282868 7.588573
          -0.960738 0.430295 7.340632
          -1.532776 -0.127440 1.865814
          -0.159408 0.205276 7.275370
          0.231655 2.438476 7.614524
          -0.403202 -1.984245 7.225898
          -0.022820 -0.414774 1.858663
          -3.496170 0.099111 5.701394
          0.748815 1.933944 -0.402842
          0.165369 2.349097 7.508977
          0.589743 1.883591 -0.389666
          -0.555749 -1.759823 7.279161
          -3.412351 -0.119571 4.865676
          -0.291768 -0.305954 7.479005
          0.699875 -2.083035 7.651330
          0.863920 1.841358 -0.335178
          0.494534 0.175422 7.146938
          1.593427 -0.246135 1.857729
          0.653261 1.845803 -0.329153
          1.352915 -0.539751 1.855042
          -0.097340 -0.295375 1.855963
          -0.006088 -0.292441 1.850414
          0.778695 1.695702 -0.351268
          -0.044730 -0.814672 1.854077
          0.452228 0.400979 7.029952
          0.737800 0.308364 7.367496
          -0.246287 -0.184475 7.559040
          -0.216520 0.249079 7.278277
          0.645459 0.126150 7.531370
          -0.196615 -0.341279 6.987075
          -0.697147 0.378140 7.236830
          0.767423 -2.083059 7.603911
          0.008303 0.264684 7.578932
          0.229078 0.399555 7.752565
          0.883898 -1.778506 7.455682
          0.229894 0.377857 7.669500
          -0.339824 0.323944 7.435610
          1.347647 -0.540595 1.852548
          0.630321 1.688427 -0.363477
          0.064991 -0.293484 1.859494
          -0.321215 -0.563697 1.853740
          0.629899 1.691216 -0.376544
          0.689980 0.390720 7.320210
          -0.700193 -0.009291 7.509816
          0.347947 0.372584 7.303790
          1.597701 -0.275292 1.851997
          0.455973 0.317978 7.035318
          0.333338 0.515273 7.741045
          0.405709 -0.636821 1.859219
          -3.549793 0.067224 5.732607
          0.723974 -2.034154 7.470283
          -1.546140 -0.091030 1.859530
          -1.583318 -0.343494 1.860853
          1.336709 -0.415557 1.859581
          -3.310600 -0.083323 4.810021
          0.594785 0.318356 7.643529
          0.311468 0.378740 7.136440
          0.699033 0.170492 7.550745
          -0.015094 0.357874 7.495725
          0.698964 1.982225 -0.381200
          0.405859 0.142537 7.591825
          -0.266393 -0.357785 7.085504
          0.064968 -0.393668 1.856727
          -0.662556 -1.787946 7.262495
          -0.890953 0.512793 7.313394
          -0.297202 0.380803 7.354293
          0.522277 1.735238 -0.366059
          0.596017 0.347126 7.167497
          -0.756856 1.024957 -0.183812
          0.338927 1.407620 7.586161
          -0.395150 -1.997786 7.488751
          0.416651 0.418319 7.403951
          0.828020 -2.036340 7.580841
          0.470456 0.232557 7.134202
          0.732843 -2.073509 7.603766
          0.575466 0.235875 7.587808
          0.606560 0.216053 7.229895
          1.664832 -0.236895 1.854329
          0.877348 -1.919216 7.492525
          -3.633989 0.039500 5.723128
          0.618489 1.290471 7.632342
          -1.570168 -0.410184 1.859891
          -1.617888 -0.441606 1.856274
          1.627051 -0.305819 1.854711
          -3.390751 -0.013468 4.840894
          -1.596118 -0.421360 1.859840
          0.543475 0.382525 7.584806
          -0.085632 0.169198 7.413173
          0.338994 0.394058 7.714483
          0.723971 -1.980537 7.705960
          0.001372 0.255079 7.511630
          1.277318 -0.403011 1.860979
          0.253000 2.300104 7.606011
          -0.501130 -1.785814 7.051191
          -1.623148 -0.397351 1.860617
          -0.427319 0.034316 7.524552
          0.862261 -1.684654 7.494951
          0.614327 -2.002404 7.720992
          -0.727115 -1.784799 7.077993
          0.196446 0.538362 7.683373
          -0.425706 -0.551468 1.857938
          -0.013874 0.177343 7.565791
          0.458130 0.252470 7.079081
          -0.821200 0.326884 7.330535
          -1.713366 -0.437393 1.858871
          0.778821 -1.753384 7.609399
          -0.252455 -0.198009 7.319364
          -0.859361 0.456783 7.382780
          0.420975 0.148411 7.637696
          1.474016 -0.486179 1.855866
          0.497711 0.403066 7.077487
          0.199161 2.372407 7.671921
          -1.512830 -0.240781 1.860370
          -0.417143 0.188356 7.292633
          0.336590 0.405355 7.196666
          -1.643104 -0.302199 1.854314
          0.238898 0.542861 7.748066
          -0.120663 0.291920 7.512324
          0.741471 -1.851212 7.437279
          0.496763 0.385284 7.097076
          0.561389 1.218494 7.539252
          0.344386 0.496787 7.616110
          0.327868 0.117514 7.424242
          -0.724369 0.359901 7.436485
          -0.995254 1.681690 0.654632
          -0.097987 -0.242784 1.858969
          -0.924735 0.412290 7.322478
          -0.787157 1.046380 -0.132714
          0.759136 -1.759662 7.517799
          0.650576 0.151150 7.524256
          -1.636162 -0.157387 1.859665
          -0.023478 -0.779567 1.853798
          -0.672856 0.025511 7.637643
          0.501730 1.456912 7.556808
          0.227433 0.479038 7.750613
          -0.416310 -0.644538 1.858712
          0.517335 1.318264 7.664816
          -0.316435 -0.341086 7.099785
          -1.638106 -0.451281 1.857512
          0.688212 -1.810305 7.497059
          0.802779 -1.820516 7.507767
          0.705518 1.996944 -0.333700
          0.626928 -2.052574 7.590688
          0.564227 0.284045 7.070812
          -1.474747 -0.063499 1.855472
          0.412704 -0.618834 1.857491
          0.210313 2.354246 7.578291
          -0.610159 -0.033629 7.358032
          0.104564 -0.590942 1.854995
          0.829728 1.686143 -0.373468
          -0.084109 0.288010 7.528784
          -0.309113 -0.405828 7.123183
          -0.572469 -0.057637 7.636788
          -0.356175 -0.211371 7.366536
          0.414203 -0.600347 1.849364
          0.817255 1.853499 -0.401899
          -0.339157 -1.986053 7.318015
        </DataArray>
      </Points>
      <PointData Scalars="density">
        <DataArray type="Float64" Name="density" format="ascii">
          1244.060254
          941.968366
          989.362253
          714.692235
          846.876678
          814.145130
          681.805701
          947.130762
          1158.498742
          992.598599
          743.896572
          960.835030
          893.576410
          1150.771208
          909.494656
          924.063480
          920.649637
          820.789612
          995.890605
          998.642327
          886.901198
          1138.008995
          1094.410365
          945.632037
          956.635867
          984.550270
          949.484324
          911.699076
          942.705429
          1098.649361
          893.271089
          908.854886
          901.464318
          932.586697
          845.987824
          1064.900523
          1067.707739
          1074.968358
          894.551674
          862.306700
          1082.174216
          959.734167
          910.929566
          843.231506
          875.915940
          1041.828472
          954.284936
          1050.397589
          963.137222
          892.723347
          730.390597
          979.066897
          972.695738
          1001.168126
          831.065299
          934.328973
          967.956639
          861.866524
          1041.685802
          1002.658063
          907.158455
          969.975521
          967.236010
          806.115464
          964.454628
          967.009769
          905.630704
          914.987735
          966.688527
          1051.926423
          966.504519
          1012.461596
          500.000000
          1102.568716
          1070.708507
          961.362467
          785.730684
          500.000000
          1013.684065
          868.305720
          849.899535
          964.618387
          909.315414
          890.329403
          864.762702
          904.584356
          974.448424
          1033.802657
          1074.963270
          888.716661
          1041.466150
          844.006049
          886.647056
          888.056783
          898.950102
          918.584871
          871.711899
          884.614793
          991.190692
          938.148202
          870.666548
          796.223338
          500.000000
          882.803757
          947.846728
          1055.970693
          870.546295
          500.000000
          947.915336
          916.399417
          873.378120
          901.071106
          1131.482362
          909.346828
          1064.567617
          933.268857
          856.298225
          894.827723
          1095.512321
          921.647542
          936.940404
          895.383479
          924.663887
          1046.454758
          993.835301
          977.478718
          980.952962
          1055.404537
          804.533951
          1122.215739
          926.243360
          956.821448
          880.702794
          946.073974
          1011.517691
          872.218190
          849.572490
          996.001734
          641.612907
          1042.091645
          857.008811
          855.011609
          876.991006
          969.974447
          500.000000
          969.432056
          1116.328191
          944.621692
          1007.857345
          500.000000
          991.533123
          1110.482516
          1073.970783
          892.673241
          886.322530
          633.811077
          983.981333
          897.430718
          949.387998
          1074.679423
          1007.106455
          1192.054674
          909.771049
          811.868454
          820.473880
          1062.841325
          1082.604141
          1123.580596
          908.528402
          822.850106
          1025.798181
          883.299937
          1107.074362
          895.688873
          500.000000
          772.628207
          777.416092
          942.320537
          934.246201
          500.000000
          500.000000
          851.507845
          991.364722
          1016.751727
          994.181672
          1096.755062
          500.000000
          906.779330
          945.435486
          1045.618552
          846.634401
          500.000000
          997.368081
          920.792560
          944.931468
          1104.435678
          817.964867
          865.459918
          1027.736577
          973.695229
          902.584065
          864.712052
          748.682544
          990.648059
          500.000000
          952.803169
          942.434050
          1067.029470
          963.249734
          689.281004
          500.000000
          1241.929586
          876.194495
          990.003550
          748.201522
          1115.856368
          500.000000
          808.542119
          926.009084
          792.058643
          913.518128
          500.000000
          1030.957267
          928.501450
          1032.349182
          855.652811
          818.096130
          887.743831
          880.600053
          902.105628
          907.927674
          933.297707
          930.340109
          1061.894846
          747.981358
          953.225003
          1026.310249
          823.838550
          966.389678
          931.113503
          999.555037
          1034.224285
          870.771857
          1092.455154
          1040.682174
          1046.494765
          500.000000
          885.328633
          1025.584789
          838.132053
          1021.829607
          500.000000
          925.433889
          1038.228446
          798.443363
          960.145244
          999.365260
          997.334333
          950.746312
          1048.045861
          1075.118044
          820.240194
          899.664231
          850.950523
          977.766558
          1027.477692
          980.096263
          947.872218
          776.918808
          883.256444
          1036.525349
          980.477806
          955.232081
          929.805031
          1132.833929
          928.202307
          925.718987
          810.388215
          991.333012
          861.393958
          866.576694
          991.598201
          901.309081
          1021.170520
          1027.386373
          947.246469
          916.267592
          901.700870
          500.000000
          1013.633899
          951.075650
          1127.052669
          1026.209268
          500.000000
          888.678892
          884.199695
          915.554148
          860.235672
          740.141860
          1017.200304
          994.751992
          946.880410
          850.966732
          1095.649761
          875.673549
          661.363625
          1159.113562
          866.295034
          730.807844
          864.686844
          988.927063
          1049.437709
          1123.131337
          1111.421449
          1159.850703
          1098.582555
          858.445708
          1012.845594
          500.000000
          967.497674
          1000.621743
          890.662641
          962.495152
          500.000000
          975.796062
          1007.790877
          995.032301
          1098.083572
          972.438677
          1021.517610
          860.935118
          1037.847915
          964.843899
          998.513576
          1070.732278
          812.282139
          846.515162
          920.127689
          826.192645
          967.889897
          904.251652
          1020.788533
          1060.330786
          766.472162
          892.748643
          1052.054228
          1148.497258
          932.772071
          1007.950472
          981.053426
          942.463641
          1177.621247
          993.969758
          909.773801
          1093.104453
          840.362484
          960.268168
          1119.794196
          1054.361115
          955.503051
          1011.688651
          836.981283
          969.750571
          858.575873
          944.466105
          1071.687089
          847.286715
          1078.238669
          1028.312403
          960.268839
          921.337860
          875.760538
          932.542439
          905.246447
          785.038634
          1056.177606
          979.900515
          865.646067
          1035.543440
          1196.342872
          659.236900
          985.858617
          965.342079
          853.749285
          922.928535
          1131.231510
          709.840289
          816.903876
          695.718660
          960.314704
          923.015408
          873.283993
          1096.722442
          934.577362
          914.957736
          1060.584784
        </DataArray>
        <DataArray type="Float64" Name="pressure" format="ascii">
          7321.807615
          -1740.949021
          -319.132405
          -8559.232945
          -4593.699659
          -5575.646092
          -9545.828961
          -1586.077146
          4754.962265
          -222.042041
          -7683.102852
          -1174.949101
          -3192.707686
          4523.136253
          -2715.160318
          -2278.095595
          -2380.510899
          -5376.311634
          -123.281853
          -40.730175
          -3392.964065
          4140.269841
          2832.310937
          -1631.038890
          -1300.923982
          -463.491892
          -1515.470269
          -2649.027714
          -1718.837125
          2959.480842
          -3201.867320
          -2734.353420
          -2956.070467
          -2022.399103
          -4620.365270
          1947.015705
          2031.232171
          2249.050733
          -3163.449793
          -4130.798999
          2465.226465
          -1207.974994
          -2672.113031
          -4703.054807
          -3722.521805
          1254.854172
          -1371.451930
          1511.927684
          -1105.883346
          -3218.299603
          -8088.282081
          -627.993104
          -819.127849
          35.043774
          -5068.041020
          -1970.130809
          -961.300841
          -4144.004268
          1250.574047
          79.741891
          -2785.246358
          -900.734356
          -982.919708
          -5816.536065
          -1066.361170
          -989.706929
          -2831.078866
          -2550.367948
          -999.344177
          1557.792703
          -1004.864418
          373.847874
          -15000.000000
          3077.061480
          2121.255196
          -1159.126001
          -6428.079490
          -15000.000000
          410.521950
          -3950.828405
          -4503.013936
          -1061.448388
          -2720.537574
          -3290.117918
          -4057.118925
          -2862.469334
          -766.547290
          1014.079705
          2248.898095
          -3338.500183
          1243.984490
          -4679.818519
          -3400.588329
          -3358.296524
          -3031.496933
          -2442.453884
          -3848.643040
          -3461.556212
          -264.279239
          -1855.553954
          -3880.003573
          -6113.299864
          -15000.000000
          -3515.887301
          -1564.598150
          1679.120795
          -3883.611148
          -15000.000000
          -1562.539931
          -2508.017500
          -3798.656408
          -2967.866822
          3944.470867
          -2719.595151
          1937.028503
          -2001.934304
          -4311.053239
          -3155.168298
          2865.369635
          -2350.573746
          -1891.787894
          -3138.495630
          -2260.083403
          1393.642739
          -184.940956
          -675.638466
          -571.411151
          1662.136107
          -5863.981467
          3666.472160
          -2212.699210
          -1295.356573
          -3578.916183
          -1617.780775
          345.530744
          -3833.454304
          -4512.825297
          -119.947967
          -10751.612799
          1262.749352
          -4289.735657
          -4349.651740
          -3690.269822
          -900.766583
          -15000.000000
          -917.038331
          3489.845733
          -1661.349252
          235.720346
          -15000.000000
          -254.006302
          3314.475472
          2219.123489
          -3219.802763
          -3410.324115
          -10985.667695
          -480.560024
          -3077.078473
          -1518.360056
          2240.382695
          213.193665
          5761.640230
          -2706.868533
          -5643.946372
          -5385.783613
          1885.239757
          2478.124229
          3707.417891
          -2744.147936
          -5314.496807
          773.945419
          -3501.001887
          3212.230854
          -3129.333810
          -15000.000000
          -6821.153786
          -6677.517252
          -1730.383894
          -1972.613958
          -15000.000000
          -15000.000000
          -4454.764648
          -259.058336
          502.551818
          -174.549837
          2902.651875
          -15000.000000
          -2796.620105
          -1636.935420
          1368.556568
          -4600.967982
          -15000.000000
          -78.957570
          -2376.223204
          -1652.055964
          3133.070328
          -5461.053985
          -4036.202451
          832.097311
          -789.143129
          -2922.478046
          -4058.638449
          -7539.523681
          -280.558243
          -15000.000000
          -1415.904919
          -1726.978489
          2010.884085
          -1102.507967
          -9321.569879
          -15000.000000
          7257.887575
          -3714.165136
          -299.893505
          -7553.954346
          3475.691049
          -15000.000000
          -5743.736418
          -2219.727483
          -6238.240709
          -2594.456170
          -15000.000000
          928.717999
          -2144.956511
          970.475448
          -4330.415684
          -5457.116102
          -3367.685068
          -3581.998398
          -2936.831172
          -2762.169782
          -2001.068789
          -2089.796738
          1856.845376
          -7560.559246
          -1403.249908
          789.307472
          -5284.843515
          -1008.309645
          -2066.594915
          -13.348875
          1026.728543
          -3876.844302
          2773.654616
          1220.465211
          1394.842952
          -15000.000000
          -3440.141000
          767.543658
          -4856.038404
          654.888223
          -15000.000000
          -2236.983341
          1146.853372
          -6046.699109
          -1195.642694
          -19.042214
          -79.970007
          -1477.610653
          1441.375822
          2253.541334
          -5392.794170
          -3010.073072
          -4471.484313