<?xml version="1.0"?>
<VTKFile type="PolyData" version="0.1" byte_order="LittleEndian">
  <PolyData>
    <Piece NumberOfPoints="396" NumberOfVerts="396" NumberOfLines="0" NumberOfStrips="0" NumberOfPolys="0">
      <Points>
        <DataArray type="Float64" NumberOfComponents="3" format="ascii">
          0.076374 0.127440 23.267579
          -0.219796 -0.234062 23.320243
          0.504182 0.260878 22.584966
          0.794607 0.222393 22.823894
          -0.514343 -0.129544 22.842965
          0.369645 0.289045 23.312457
          0.109269 0.264746 22.795016
          -0.479319 -0.141689 23.322479
          0.247041 -0.233680 23.463065
          0.200112 -0.305759 22.890953
          0.067512 -0.536082 22.852192
          0.000864 0.024941 22.206346
          0.230489 0.227446 23.448739
          0.056914 0.599159 23.261592
          0.234205 -0.188431 22.922262
          0.046462 0.496726 23.231097
          -0.592754 0.124090 22.559966
          0.915703 0.195076 22.875018
          0.229849 -0.227480 23.449219
          0.057181 -0.598782 23.262198
          0.233705 0.187660 22.922729
          0.046447 -0.496542 23.229960
          -0.593639 -0.123575 22.560035
          0.915132 -0.195587 22.875702
          0.109565 -0.265016 22.796199
          -0.479291 0.142079 23.322409
          0.246770 0.233672 23.462684
          0.199602 0.305592 22.890648
          0.066992 0.536376 22.852243
          0.005183 -0.028744 22.203381
          0.073776 -0.126469 23.265638
          -0.219452 0.236001 23.320173
          0.504883 -0.260514 22.585301
          0.795080 -0.222413 22.823826
          -0.517302 0.128867 22.847582
          0.369572 -0.288775 23.312402
          0.996038 0.079600 22.864001
          -0.253458 -0.252271 23.272207
          -0.448499 -0.250507 22.663193
          -0.576998 -0.006194 23.477581
          -0.624410 -0.263096 22.922349
          -0.420769 -0.302410 23.356333
          -0.979873 -0.111748 22.886669
          -0.382099 0.212364 23.436548
          0.340990 -0.275795 23.399597
          0.993107 0.090774 22.829884
          0.005101 0.208348 22.539894
          -0.764743 -0.275245 22.985775
          -0.717792 -0.124435 23.262120
          0.724896 -0.109814 23.278364
          -0.608984 0.185027 22.879373
          -0.440743 -0.258254 22.692772
          0.714410 -0.066119 22.869824
          -0.703237 -0.042205 23.359726
          -0.717775 0.123985 23.261969
          0.724942 0.109885 23.278294
          -0.608371 -0.185400 22.881183
          -0.444111 0.255803 22.692917
          0.714274 0.066214 22.869432
          -0.702715 0.042154 23.360649
          -0.979621 0.112785 22.885547
          -0.381890 -0.212207 23.436350
          0.340894 0.275880 23.399476
          0.993256 -0.090907 22.830181
          0.004725 -0.208947 22.539377
          -0.761240 0.275683 22.985736
          0.995656 -0.079386 22.863313
          -0.253038 0.251469 23.270935
          -0.448744 0.250674 22.663715
          -0.577034 0.006059 23.477589
          -0.625414 0.264266 22.923181
          -0.421127 0.302096 23.356829
          5.751187 1.653701 33.290832
          -0.102111 -0.274644 23.325011
          0.810372 -0.268124 22.955085
          0.404716 0.143706 22.672438
          -0.616681 -0.002830 22.472727
          5.925386 1.758636 12.586108
          -0.149826 -0.035590 22.967738
          -0.876384 0.248567 22.762786
          -0.012374 0.236604 22.355041
          -0.453370 0.039527 23.484672
          -0.157301 0.259332 22.885326
          -0.950279 0.062729 22.907726
          0.809891 -0.150614 23.129555
          0.134968 -0.004868 22.946403
          0.431770 -0.178106 23.299830
          0.407036 0.301144 23.399231
          0.547123 -0.028671 22.445871
          0.602527 0.080556 22.461342
          0.809605 0.149594 23.130023
          0.136506 0.004587 22.946699
          0.431322 0.178093 23.300056
          0.406521 -0.301470 23.398357
          0.547227 0.028306 22.445901
          0.602390 -0.081149 22.461232
          -0.149867 0.036388 22.967766
          -0.873531 -0.247908 22.761187
          -0.014875 -0.238835 22.359121
          -0.452865 -0.040009 23.484417
          -0.157548 -0.258737 22.884383
          -0.950101 -0.063841 22.908110
          5.881574 -1.730097 33.334523
          -0.103204 0.277062 23.322923
          0.810376 0.267915 22.955297
          0.405719 -0.144864 22.673908
          -0.616764 0.002527 22.472799
          5.861040 -1.708507 12.589311
          -0.485211 0.357362 22.673986
          -0.609630 -0.096822 23.082955
          -0.153939 0.133835 22.955180
          -0.605274 -0.191607 22.710224
          -0.890286 -0.219683 22.755343
          -0.182426 0.325655 22.768369
          -0.959305 0.000709 22.733412
          -0.817404 -0.313878 22.852113
          -0.553376 -0.256809 22.774430
          0.053060 -0.562831 22.885411
          -0.468952 -0.087444 22.797018
          -0.530155 -0.274540 22.687957
          -0.720452 -0.036843 23.388999
          -0.356124 -0.311438 23.334766
          -0.593896 -0.098960 22.463911
          -0.569228 0.169458 23.014467
          -0.641655 -0.105274 23.396900
          -0.819925 0.215320 23.058660
          -0.719885 0.037235 23.389357
          -0.356519 0.310775 23.334490
          -0.594408 0.098704 22.463888
          -0.569831 -0.165651 23.014664
          -0.640853 0.105483 23.397476
          -0.819278 -0.214447 23.059571
          -0.959283 -0.000897 22.733268
          -0.817284 0.313997 22.850880
          -0.554162 0.256710 22.773016
          0.052403 0.563221 22.885967
          -0.469162 0.084844 22.796735
          -0.529026 0.275680 22.688447
          -0.479782 -0.356564 22.674633
          -0.610531 0.096644 23.083247
          -0.154201 -0.132847 22.954987
          -0.604830 0.191646 22.710402
          -0.890627 0.220453 22.755962
          -0.182897 -0.326037 22.767956
          6.000000 1.813966 33.384126
          -0.524967 0.090281 22.485342
          -0.087681 -0.486098 22.988752
          -0.080396 -0.518553 22.832419
          0.696899 -0.146456 23.154799
          5.846992 1.704828 12.586076
          -0.032465 0.605676 23.206707
          0.879434 -0.285942 22.872644
          -0.075332 -0.264805 22.555711
          -0.080793 -0.401029 23.162783
          0.625358 0.276909 22.956527
          0.471862 0.181376 22.768018
          -0.208603 -0.265445 22.872560
          0.169248 -0.018782 23.188526
          -0.012646 0.395282 23.421940
          0.075434 0.121041 22.428550
          -0.228312 -0.006880 23.253859
          0.117421 -0.465253 23.313865
          -0.208220 0.264407 22.873031
          0.178830 0.014790 23.190104
          -0.012427 -0.398729 23.420491
          0.074526 -0.123001 22.430889
          -0.228208 0.009867 23.254040
          0.117423 0.465174 23.313877
          -0.032609 -0.605568 23.206455
          0.879301 0.285967 22.871996
          -0.075094 0.262908 22.555569
          -0.080858 0.401014 23.162361
          0.624595 -0.276418 22.956330
          0.470754 -0.181355 22.768216
          5.890687 -1.737570 33.340435
          -0.525213 -0.089800 22.485030
          -0.088206 0.485388 22.988213
          -0.080635 0.518474 22.832325
          0.696702 0.147610 23.154853
          5.911337 -1.754957 12.582872
          -0.000000 2.339650 31.712249
          0.001115 -0.040213 22.204939
          0.001660 0.144404 22.981985
          -0.000079 0.207831 22.322182
          0.000169 0.255968 22.423503
          0.000000 2.339648 14.211332
          -0.000000 -2.359023 20.230144
          -0.000421 -0.202030 22.412252
          -0.000065 -0.501129 23.165190
          0.001477 -0.029459 22.523394
          0.000630 -0.259422 23.427737
          0.000000 0.284877 25.734903
          -0.000196 0.538330 22.924346
          0.000144 -0.136633 22.610764
          0.000625 0.377400 22.982837
          -0.000009 0.473674 22.850797
          0.001393 -0.203387 23.451736
          0.001417 0.231488 23.411453
          0.000340 -0.538066 22.923892
          0.000638 0.137374 22.609501
          -0.000591 -0.377765 22.984091
          0.000162 -0.474178 22.851103
          -0.002922 0.204026 23.451688
          -0.000684 -0.233268 23.412003
          0.000000 2.359023 20.230143
          0.000184 0.200677 22.411359
          0.000008 0.501406 23.166481
          -0.001658 0.020288 22.503710
          -0.001047 0.259743 23.428177
          -0.000000 -0.284877 25.734903
          -0.000000 -2.339650 31.712249
          0.002394 0.039718 22.206930
          -0.001485 -0.144316 22.982116
          -0.000342 -0.202879 22.317756
          -0.000357 -0.254658 22.413786
          -0.000000 -2.339648 14.211332
          -5.883493 1.731352 33.335341
          0.524352 0.089985 22.485070
          0.087731 -0.486395 22.988805
          0.080702 -0.518432 22.832101
          -0.696568 -0.145682 23.155537
          -5.910834 1.747286 12.586839
          0.033216 0.605534 23.206889
          -0.879478 -0.286053 22.872907
          0.075708 -0.263922 22.555982
          0.080744 -0.400702 23.162407
          -0.624972 0.276938 22.956787
          -0.470644 0.180978 22.768274
          0.208071 -0.265432 22.872699
          -0.170865 -0.009781 23.189034
          0.011910 0.398067 23.420924
          -0.075355 0.120916 22.427820
          0.228360 -0.008851 23.254247
          -0.117799 -0.464669 23.313999
          0.207906 0.265575 22.872991
          -0.177423 0.012209 23.188764
          0.012272 -0.398208 23.420816
          -0.074270 -0.123050 22.430220
          0.228393 0.007339 23.254146
          -0.117005 0.465819 23.313785
          0.032593 -0.605559 23.206492
          -0.879188 0.285833 22.871806
          0.075310 0.263587 22.555505
          0.081104 0.401239 23.162736
          -0.624694 -0.276211 22.956136
          -0.471271 -0.181328 22.767691
          -5.875207 -1.744515 33.356705
          0.525223 -0.089595 22.484443
          0.087754 0.485843 22.988567
          0.080580 0.518483 22.832271
          -0.694671 0.146429 23.153783
          -5.901467 -1.725193 12.595319
          0.480020 0.356047 22.673879
          0.609859 -0.096693 23.082886
          0.153694 0.132656 22.955268
          0.605222 -0.191391 22.709517
          0.890438 -0.219965 22.755577
          0.182093 0.325533 22.767525
          0.959375 0.000595 22.733411
          0.817310 -0.313864 22.851692
          0.553885 -0.256629 22.772732
          -0.052591 -0.562962 22.885479
          0.468993 -0.086647 22.796839
          0.530425 -0.275024 22.688611
          0.720494 -0.036849 23.389026
          0.356450 -0.311162 23.334624
          0.594209 -0.099008 22.463584
          0.569975 0.168005 23.014603
          0.641450 -0.105318 23.397067
          0.819688 0.215300 23.058772
          0.719848 0.037276 23.389364
          0.356181 0.311118 23.334550
          0.594331 0.098589 22.463965
          0.569060 -0.167178 23.013787
          0.641001 0.105499 23.397307
          0.819725 -0.214651 23.059441
          0.959311 -0.000793 22.733270
          0.817365 0.314073 22.851223
          0.555324 0.256335 22.773838
          -0.052622 0.563190 22.886054
          0.468502 0.086202 22.796534
          0.528699 0.275044 22.688100
          0.482463 -0.356986 22.675043
          0.610340 0.096764 23.083505
          0.153607 -0.132404 22.955684
          0.605352 0.191370 22.711141
          0.890572 0.220229 22.755719
          0.182595 -0.325823 22.768014
          -5.888767 1.736315 33.339617
          0.102789 -0.275866 23.324279
          -0.810613 -0.268368 22.954678
          -0.405650 0.145046 22.673116
          0.616843 -0.003026 22.472712
          -5.861544 1.716178 12.585344
          0.149334 -0.034767 22.968237
          0.876005 0.248564 22.762556
          0.012217 0.236753 22.354821
          0.453244 0.039688 23.484672
          0.157131 0.259096 22.884526
          0.950306 0.062891 22.907848
          -0.810121 -0.151185 23.129082
          -0.134836 -0.004525 22.946757
          -0.431586 -0.178491 23.300515
          -0.407053 0.301112 23.398694
          -0.547328 -0.028741 22.445920
          -0.602410 0.080870 22.461382
          -0.809437 0.149276 23.130125
          -0.136169 0.004968 22.946574
          -0.431558 0.177814 23.299593
          -0.406612 -0.301380 23.399091
          -0.547384 0.028524 22.445970
          -0.602229 -0.081086 22.461311
          0.149406 0.034968 22.968020
          0.874123 -0.247962 22.761418
          0.014955 -0.238448 22.359471
          0.452992 -0.039830 23.484459
          0.157136 -0.259320 22.885054
          0.950169 -0.063700 22.907977
          -5.897054 -1.723152 33.318253
          0.102553 0.276062 23.323723
          -0.810175 0.267593 22.955601
          -0.404747 -0.144042 22.673963
          0.616960 0.002268 22.472772
          -5.870910 -1.738272 12.576864
          -0.996135 0.079634 22.864149
          0.252604 -0.251296 23.270514
          0.448926 -0.250389 22.663296
          0.576887 -0.006302 23.477610
          0.624440 -0.263379 22.922601
          0.421093 -0.302088 23.356576
          0.979854 -0.111900 22.886464
          0.381996 0.212359 23.436598
          -0.340929 -0.276020 23.399154
          -0.993082 0.090783 22.830018
          -0.004248 0.208247 22.540912
          0.763772 -0.275329 22.985750
          0.717676 -0.124600 23.262356
          -0.724805 -0.109932 23.278175
          0.608404 0.185294 22.879434
          0.441434 -0.257435 22.693315
          -0.714321 -0.066232 22.870168
          0.703223 -0.042126 23.359800
          0.717865 0.123825 23.261841
          -0.725026 0.109714 23.278365
          0.608553 -0.185197 22.880558
          0.442904 0.256128 22.691406
          -0.714429 0.065935 22.869509
          0.702845 0.042239 23.360607
          0.979663 0.112662 22.885696
          0.382056 -0.212275 23.436384
          -0.340831 0.275713 23.399902
          -0.993283 -0.090877 22.830086
          -0.003508 -0.209091 22.540965
          0.761579 0.275701 22.985625
          -0.995470 -0.079348 22.863130
          0.253766 0.252383 23.272441
          0.447391 0.251069 22.663546
          0.577102 0.005938 23.477588
          0.625824 0.263870 22.923131
          0.421110 0.302321 23.356578
          -0.075450 0.126819 23.266785
          0.219584 -0.235486 23.320856
          -0.504408 0.261038 22.585620
          -0.794556 0.222381 22.824083
          0.516759 -0.128700 22.846271
          -0.369961 0.288906 23.312656
          -0.110206 0.264908 22.795322
          0.479354 -0.141684 23.322193
          -0.247847 -0.234058 23.462719
          -0.200574 -0.305747 22.890752
          -0.067029 -0.536172 22.851973
          -0.007677 0.044379 22.207851
          -0.230252 0.227100 23.449280
          -0.057070 0.598983 23.261601
          -0.234129 -0.187943 22.922473
          -0.046647 0.496770 23.229677
          0.592969 0.124227 22.560388
          -0.915930 0.194916 22.874809
          -0.230005 -0.227719 23.448771
          -0.057086 -0.598783 23.262159
          -0.234119 0.188326 22.922362
          -0.046427 -0.496493 23.230480
          0.594201 -0.123526 22.559510
          -0.914803 -0.195859 22.876001
          -0.109100 -0.264902 22.795194
          0.479254 0.142072 23.322625
          -0.244718 0.233599 23.463379
          -0.200045 0.304689 22.890904
          -0.067123 0.536361 22.852409
          -0.002288 -0.026302 22.203477
          -0.074813 -0.126648 23.266455
          0.219759 0.234761 23.319846
          -0.504842 -0.260461 22.584654
          -0.795178 -0.222476 22.823655
          0.515069 0.129754 22.844044
          -0.369295 -0.288853 23.312299
        </DataArray>
      </Points>
      <PointData Scalars="density">
        <DataArray type="Float64" Name="density" format="ascii">
          955.517749
          1129.414960
          908.355606
          1143.843576
          1070.587401
          925.924801
          977.562876
          1049.840430
          909.212557
          854.649932
          944.660609
          837.671533
          960.000480
          805.988750
          845.425401
          1073.942221
          1121.970380
          1111.494522
          959.414364
          805.860632
          845.108374
          1074.695336
          1121.477641
          1111.633167
          978.739403
          1050.093636
          909.970554
          855.666291
          944.039150
          822.379674
          956.322106
          1132.286783
          909.404467
          1143.293450
          1067.408901
          925.870782
          1061.412654
          1036.153999
          984.652589
          920.435310
          1024.627155
          863.954238
          1065.570175
          964.002642
          1004.432640
          1032.077968
          977.780305
          991.657618
          956.358016
          961.342226
          1168.344005
          979.140832
          1159.580600
          1055.515076
          956.953548
          961.195232
          1164.888902
          985.021989
          1159.171928
          1055.200715
          1066.084765
          964.837075
          1005.007602
          1031.788977
          983.684643
          991.400599
          1062.871090
          1037.407203
          982.889328
          920.456717
          1024.521831
          863.470859
          500.000000
          1149.200423
          1043.619430
          959.433889
          1038.164141
          500.000000
          988.790117
          886.191324
          917.147178
          831.789118
          952.364241
          1123.906499
          829.869641
          1008.923795
          996.244284
          878.518142
          1029.441844
          1007.428471
          830.092647
          1007.505311
          996.928533
          878.709878
          1029.611972
          1007.411791
          989.410050
          886.831660
          913.833021
          832.431189
          951.197917
          1124.059435
          500.000000
          1152.180030
          1044.237841
          961.660729
          1038.139827
          500.000000
          715.434347
          914.423741
          959.750720
          1154.631208
          899.208714
          809.404885
          915.461993
          933.890150
          1102.525196
          933.501664
          1031.612231
          1025.081433
          985.442398
          932.041208
          984.939727
          871.733049
          997.721750
          910.972812
          985.528463
          932.537498
          984.572948
          872.178678
          997.422730
          912.470150
          915.410491
          932.916895
          1103.563601
          933.109303
          1028.834924
          1022.574807
          717.378963
          917.486721
          957.784976
          1155.334422
          899.499644
          809.989981
          500.000000
          1073.693541
          1079.224721
          899.986972
          952.074526
          500.000000
          852.438968
          939.567038
          832.974887
          1041.640492
          942.787814
          1115.252872
          857.140514
          890.632011
          955.029469
          1028.913314
          886.759095
          982.413599
          856.762366
          883.651495
          954.465567
          1030.336433
          886.919219
          982.227052
          852.714769
          940.064190
          830.188106
          1041.482712
          943.119908
          1113.913666
          500.000000
          1073.931037
          1079.128125
          899.313262
          950.097960
          500.000000
          500.000000
          818.674837
          1073.474387
          975.045323
          954.546257
          500.000000
          500.000000
          1053.501247
          1112.680847
          1048.996368
          977.870682
          500.000000
          1078.990382
          875.485671
          1178.797033
          1115.015268
          807.284501
          973.378272
          1079.760544
          873.355768
          1177.118163
          1114.993732
          808.788395
          973.516384
          500.000000
          1055.438367
          1112.269568
          1094.406246
          977.591738
          500.000000
          500.000000
          832.454965
          1073.036864
          972.182392
          953.766399
          500.000000
          500.000000
          1073.535254
          1079.503345
          899.797935
          953.147155
          500.000000
          852.294637
          939.480909
          833.850536
          1042.062024
          943.209929
          1113.269083
          856.705699
          888.500153
          954.394171
          1029.346480
          886.804076
          982.772221
          856.613206
          884.708097
          954.132789
          1030.631039
          886.741805
          982.072780
          852.785171
          939.982993
          829.899869
          1041.228110
          942.991102
          1116.234142
          500.000000
          1072.899783
          1079.364686
          899.355259
          952.983088
          500.000000
          717.407765
          914.370887
          958.660982
          1154.708959
          899.414805
          810.405859
          915.476520
          933.732038
          1103.403968
          933.247009
          1030.165060
          1024.199269
          985.184965
          931.919473
          984.325226
          871.605863
          997.442095
          911.779451
          985.614107
          933.009644
          984.912330
          871.475163
          997.408514
          911.310871
          915.435336
          933.386373
          1104.014285
          932.994064
          1029.111768
          1023.385131
          717.083046
          914.873234
          959.777252
          1155.159273
          899.612464
          809.920414
          500.000000
          1151.641819
          1043.549783
          960.493620
          1038.095924
          500.000000
          989.855862
          886.548696
          916.533813
          832.058461
          952.111905
          1123.585339
          830.449095
          1009.666365
          996.554275
          878.027475
          1029.335329
          1007.368984
          829.985322
          1008.270292
          996.733983
          878.693099
          1029.549150
          1007.317772
          989.188799
          886.724797
          915.160907
          832.496677
          951.832113
          1123.933553
          500.000000
          1149.490875
          1044.161171
          961.181433
          1037.975449
          500.000000
          1061.193964
          1036.599885
          983.493057
          920.265631
          1024.844880
          863.744138
          1065.603982
          964.584022
          1004.880580
          1032.353476
          976.476123
          991.704523
          955.594800
          961.797274
          1166.520795
          979.572185
          1160.088091
          1055.313578
          957.361981
          961.172069
          1166.251661
          983.317549
          1159.231311
          1054.929535
          1065.882017
          964.475842
          1004.443442
          1031.563234
          981.167003
          991.864692
          1063.422762
          1036.709666
          981.773179
          920.355510
          1024.448169
          863.963308
          956.612647
          1132.293896
          908.817503
          1143.888700
          1068.191174
          925.543788
          976.539941
          1049.660053
          909.959737
          854.374624
          944.236190
          830.217313
          960.028675
          806.179513
          845.746496
          1074.032345
          1122.001009
          1110.997163
          959.876068
          805.921112
          846.096300
          1074.527327
          1120.297910
          1112.000566
          977.947222
          1050.054191
          908.827112
          855.380676
          944.117192
          825.358258
          955.205147
          1129.251421
          908.983819
          1142.505750
          1069.119088
          925.747658
        </DataArray>
        <DataArray type="Float64" Name="pressure" format="ascii">
          -1334.467521
          3882.448806
          -2749.331826
          4315.307295
          2117.622042
          -2222.255973
          -673.113718
          1495.212903
          -2723.623293
          -4360.502040
          -1660.181731
          -4869.853996
          -1199.985611
          -5820.337492
          -4637.237984
          2218.266618
          3659.111391
          3344.835671
          -1217.569081
          -5824.181028
          -4646.748791
          2240.860091
          3644.329216
          3348.995015
          -637.817912
          1502.809066
          -2700.883366
          -4330.011279
          -1678.825500
          -5328.609791
          -1310.336830
          3968.603490
          -2717.865994
          4298.803508
          2022.267030
          -2223.876542
          1842.379634
          1084.619956
          -460.422325
          -2386.940695
          738.814635
          -4081.372850
          1967.105263
          -1079.920729
          132.979215
          962.339053
          -666.590850
          -250.271460
          -1309.259508
          -1159.733211
          5050.320140
          -625.775025
          4787.417999
          1665.452286
          -1291.393556
          -1164.143046
          4946.667059
          -449.340330
          4775.157839
          1656.021443
          1982.542958
          -1054.887761
          150.228068
          953.669320
          -489.460699
          -257.982022
          1886.132712
          1122.216092
          -513.320152
          -2386.298497
          735.654916
          -4095.874227
          -15000.000000
          4476.012689
          1308.582904
          -1216.983317
          1144.924228
          -15000.000000
          -336.296498
          -3414.260271
          -2485.584647
          -5046.326473
          -1429.072784
          3717.194984
          -5103.910769
          267.713851
          -112.671473
          -3644.455727
          883.255327
          222.854127
          -5097.220580
          225.159338
          -92.144019
          -3638.703658
          888.359149
          222.353723
          -317.698486
          -3395.050189
          -2585.009378
          -5027.064322
          -1464.062489
          3721.783058
          -15000.000000
          4565.400897
          1327.135244
          -1150.178130
          1144.194814
          -15000.000000
          -8536.969585
          -2567.287771
          -1207.478407
          4638.936242
          -3023.738567
          -5717.853455
          -2536.140210
          -1983.295508
          3075.755886
          -1994.950068
          948.366938
          752.442986
          -436.728054
          -2038.763746
          -451.808178
          -3848.008524
          -68.347505
          -2670.815647
          -434.146104
          -2023.875063
          -462.811551
          -3834.639661
          -77.318097
          -2625.895499
          -2537.685276
          -2012.493155
          3106.908031
          -2006.720919
          865.047709
          677.244211
          -8478.631100
          -2475.398359
          -1266.450734
          4660.032656
          -3015.010684
          -5700.300563
          -15000.000000
          2210.806237
          2376.741639
          -3000.390842
          -1437.764213
          -15000.000000
          -4426.830953
          -1812.988847
          -5010.753381
          1249.214774
          -1716.365573
          3457.586152
          -4285.784571
          -3281.039660
          -1349.115943
          867.399408
          -3397.227146
          -527.592040
          -4297.129014
          -3490.455143
          -1366.032978
          910.093001
          -3392.423428
          -533.188436
          -4418.556923
          -1798.074292
          -5094.356814
          1244.481374
          -1706.402765
          3417.409982
          -15000.000000
          2217.931119
          2373.843743
          -3020.602149
          -1497.061187
          -15000.000000
          -15000.000000
          -5439.754891
          2204.231601
          -748.640312
          -1363.612305
          -15000.000000
          -15000.000000
          1605.037424
          3380.425422
          1469.891035
          -663.879529
          -15000.000000
          2369.711466
          -3735.429875
          5363.910990
          3450.458036
          -5781.464983
          -798.651828
          2392.816311
          -3799.326970
          5313.544877
          3449.811960
          -5736.348146
          -794.508483
          -15000.000000
          1663.151012
          3368.087027
          2832.187376
          -672.247874
          -15000.000000
          -15000.000000
          -5026.351041
          2191.105932
          -834.528249
          -1387.008028
          -15000.000000
          -15000.000000
          2206.057613
          2385.100340
          -3006.061951
          -1405.585346
          -15000.000000
          -4431.160889
          -1815.572729
          -4984.483929
          1261.860720
          -1703.702118
          3398.072481
          -4298.829037
          -3344.995397
          -1368.174864
          880.394404
          -3395.877717
          -516.833378
          -4301.603819
          -3458.757079
          -1376.016340
          918.931185
          -3397.745838
          -537.816586
          -4416.444870
          -1800.510212
          -5103.003942
          1236.843306
          -1710.266953
          3487.024252
          -15000.000000