<?xml version="1.0"?>
<VTKFile type="PolyData" version="0.1" byte_order="LittleEndian">
  <PolyData>
    <Piece NumberOfPoints="686" NumberOfVerts="686" NumberOfLines="0" NumberOfStrips="0" NumberOfPolys="0">
      <Points>
        <DataArray type="Float64" NumberOfComponents="3" format="ascii">
          -0.958390 -0.013108 38.984270
          -0.633541 -0.206810 38.991586
          -0.216486 -0.001625 39.191619
          -0.593361 -0.407161 39.010973
          -0.648366 -0.368911 39.059955
          -0.653842 -0.227301 39.181543
          -0.324238 0.101479 39.301623
          -0.871589 -0.046277 38.969961
          -0.682374 -0.222798 39.032154
          -1.161434 -0.143875 39.273441
          -0.825528 -0.040488 39.020192
          -0.205070 -0.029943 39.140272
          -1.316182 -0.038704 39.075517
          -1.185123 -0.036650 39.756499
          -1.069319 -0.021691 38.741348
          -0.512925 -0.072823 38.979357
          -0.167871 -0.132283 39.283676
          -1.299444 -0.033356 39.085467
          -0.514482 -0.048998 39.560826
          -0.693523 -0.198625 39.161940
          -1.200560 -0.043283 39.747186
          -1.108006 -0.043034 38.764922
          -0.390593 -0.059246 38.485008
          -1.309650 -0.066707 39.208710
          -0.155542 -0.090638 38.933941
          -1.293973 -0.021817 39.109919
          -0.477139 -0.110847 39.116289
          -1.130664 0.051568 39.342622
          -1.019007 -0.070351 38.763278
          -0.472511 -0.271541 39.048945
          -0.285588 -0.054627 39.485330
          -1.302807 -0.056760 39.102201
          -0.487900 -0.035508 39.658294
          -0.557243 -0.078371 39.269710
          -1.202923 -0.061538 39.744811
          -1.010472 -0.016231 38.929847
          -0.392612 0.047595 39.049975
          -1.225781 0.018564 39.342440
          -0.820949 -0.013109 39.019774
          -0.183855 -0.021870 38.980402
          -1.211523 -0.154491 39.231530
          -1.184154 -0.062835 39.756834
          -0.896904 0.010218 38.996457
          -0.563929 0.300985 39.099503
          -0.485499 0.089562 39.235596
          -0.465384 0.084041 39.074906
          -0.572391 0.311784 39.131362
          -0.573302 0.320003 39.109473
          -0.560079 -0.009370 39.403215
          -0.135070 -1.300303 37.911786
          -0.600100 -0.476839 39.094463
          -3.886732 -2.480068 39.069570
          -0.084483 -0.178603 39.489300
          -3.886670 -2.479711 39.107082
          -0.184064 -0.042619 39.304471
          -0.019283 -0.799818 39.653689
          -0.396517 -0.013444 39.428250
          -2.234944 -1.228226 38.032869
          -0.510244 -0.433420 39.098480
          0.019886 -0.489365 39.125817
          -0.075721 -0.206186 39.341213
          -2.030685 -1.286623 40.310963
          -1.107138 -0.055590 39.384280
          -3.886855 -0.069103 36.658176
          -0.320616 -0.817110 38.833518
          -5.428463 -0.031091 39.097240
          -3.898150 -2.526913 39.088824
          -5.433800 -0.078976 39.081229
          0.030429 -0.291957 39.167012
          -3.886610 -0.068919 41.518204
          -0.636657 -0.078967 38.183169
          -0.482334 -0.056013 38.523915
          -3.898116 -0.050000 36.611907
          -5.440510 -0.050000 39.065504
          -3.898058 -0.050000 41.565237
          -0.649201 -0.153148 39.249488
          0.012570 -0.020333 39.557092
          -3.886855 -0.030897 36.658176
          -0.036368 0.666028 38.636610
          -5.428463 -0.068909 39.097239
          -3.898150 2.426913 39.088824
          -5.433800 -0.021024 39.081229
          -0.384010 0.188993 39.136282
          -3.886610 -0.031081 41.518204
          -0.165476 -0.137036 38.967359
          -2.234946 1.128224 38.032868
          -0.637326 -0.013738 39.177106
          -0.043683 0.545665 39.150444
          -0.104495 0.133771 39.518270
          -2.025961 1.243455 40.323057
          -1.077772 -0.054452 39.346272
          -0.085597 1.128042 37.943191
          -0.541263 0.143116 39.057413
          -3.886732 2.380068 39.069570
          0.132729 0.019264 39.607029
          -3.886670 2.379711 39.107082
          -0.063480 0.206665 39.054633
          -0.219972 0.659296 39.746276
          0.338870 -0.354514 39.175440
          -0.359810 0.151997 39.286874
          -0.462941 0.015624 38.456449
          -2.055596 -3.572396 39.081554
          -1.243034 -0.106739 39.350407
          -0.100660 -0.211948 39.339702
          -0.228726 -0.210132 39.190846
          -0.451760 -0.104288 38.507089
          -2.075086 -1.632692 37.402337
          -0.194127 -0.156068 39.079687
          -0.718695 -0.168810 39.052653
          0.022278 -0.254049 39.463428
          -1.853006 -1.318287 40.305772
          -0.283161 -0.224719 39.141083
          -0.538521 0.021284 38.994063
          0.279856 -0.817980 38.807490
          -0.014150 0.085400 38.770526
          -0.196252 -0.111456 39.751902
          -0.053656 -0.319134 39.155763
          -0.260255 -0.729991 39.821013
          -0.614070 -0.472432 39.087599
          -2.040389 -0.044869 34.038085
          -1.099973 -0.039460 38.738751
          0.008405 0.122329 39.119130
          -0.631331 -0.034759 38.165994
          -0.182528 -0.008648 38.940381
          -1.223325 -0.045510 39.771474
          -2.073072 -0.045827 44.132910
          -0.666610 -0.067801 39.046097
          -0.091182 0.554403 38.801054
          0.090902 -0.175501 38.932621
          -0.203492 -0.052517 39.668907
          0.063523 0.144872 39.364095
          -0.098292 0.593104 39.576075
          -0.307432 0.269902 38.937935
          -0.465826 0.018360 38.466728
          -2.098811 1.538937 37.407526
          -0.147427 0.115513 39.260868
          -0.551216 0.269243 39.159376
          -0.102221 0.115795 39.512904
          -1.848989 1.191862 40.313556
          -0.295229 0.227899 38.982701
          0.333416 0.289653 38.974930
          -0.209184 -0.106157 39.717714
          -0.455842 -0.108484 38.497112
          -2.059451 3.551597 39.091016
          -1.146279 0.052192 39.363393
          -0.413537 0.132140 39.253631
          -0.288132 0.200143 39.238964
          -0.363912 -0.760976 38.775579
          -2.211858 -1.204497 38.053315
          -2.055085 -3.572212 39.094830
          -0.084768 -0.564553 39.040404
          -2.061126 -3.572547 39.089949
          -1.966886 -1.228473 40.275894
          0.265518 -0.798901 39.650925
          -2.224782 -1.193532 38.056004
          0.174937 -1.341847 37.763241
          -0.089839 -1.910417 37.205267
          -0.080339 -0.119819 38.800739
          -0.340229 -1.950214 41.019895
          0.184541 -0.815242 39.604668
          -1.854930 -1.318927 40.364834
          -2.064634 -0.054898 34.049599
          -0.198512 -1.979768 37.172888
          -2.100179 -1.629065 37.405817
          -0.027045 -2.302344 39.043753
          -2.052603 -1.306588 40.349907
          -0.338990 -1.906698 40.929425
          -2.059199 -0.050165 44.125827
          -0.528630 -0.045052 38.261904
          -0.250360 -0.122518 39.317980
          -0.008092 -0.037049 37.066879
          -0.443459 -0.002413 39.645427
          -0.170706 -0.051316 41.226100
          -0.308198 -0.001700 39.442946
          0.225239 -0.081238 39.747783
          -2.043848 -0.048527 34.037144
          -0.197735 1.879986 37.173072
          -2.087249 1.530034 37.400289
          -0.026960 2.203101 39.044464
          -2.015972 1.144726 40.386680
          -0.338989 1.806702 40.929423
          -2.063191 -0.058208 44.125103
          -2.224786 1.093530 38.056005
          0.129692 1.288015 37.761761
          -0.088893 1.810446 37.205221
          0.019577 -0.202277 38.794553
          -0.340231 1.850212 41.019895
          -0.246358 0.734635 39.641728
          -1.990130 1.136524 40.341028
          -0.033822 0.595442 38.621713
          -2.211857 1.104499 38.053314
          -2.059368 3.519540 39.096091
          -0.100955 0.569857 39.215722
          -2.050618 3.523507 39.086319
          -1.996279 1.113006 40.317371
          -0.135602 0.636818 39.521750
          0.309696 -0.743042 38.752238
          0.162862 -1.907091 37.197459
          -2.246796 -1.239590 38.035754
          -2.048987 -3.566163 39.085164
          -1.998204 -1.224480 40.332356
          -0.396581 -1.910481 40.969931
          0.068923 -0.837956 39.613291
          -0.202371 -1.926737 37.239479
          0.033672 -0.198526 38.809263
          -0.465551 -0.270020 39.019785
          -0.560638 -0.239969 39.142285
          -0.514857 -0.026748 39.403119
          -0.205494 -0.124712 39.755341
          -0.310531 -1.956959 40.949513
          -2.243738 -1.199610 38.033359
          -0.463943 -0.074059 39.014593
          -0.203997 -1.342861 37.758744
          -0.374145 -0.267257 39.055206
          -0.010604 -0.752638 39.703645
          -1.167852 -0.159645 39.284648
          -2.001570 -1.363187 40.361582
          -2.071477 -0.051706 34.047474
          -0.518547 -0.044516 38.316855
          -0.562679 -0.046707 38.312184
          0.273454 0.159291 39.006950
          -0.631772 -0.023642 39.236212
          -0.562054 -0.036005 39.350688
          -2.025782 -0.045800 44.147463
          -2.243737 1.099608 38.033358
          -0.445182 -0.052113 38.996446
          -0.172509 1.271743 37.772533
          -0.114825 0.096401 39.015842
          0.284176 0.713572 39.912929
          -1.183334 0.025526 39.261671
          -1.935386 1.285537 40.388031
          -0.202509 1.827125 37.239321
          -0.109071 -0.011147 38.831720
          -0.602722 0.277460 39.075196
          -0.320480 0.284321 39.044927
          -0.660215 0.002437 39.131158
          -0.214101 -0.131204 39.743679
          -0.310532 1.856958 40.949509
          -0.127792 0.615699 38.789110
          0.162851 1.807147 37.197422
          -2.246791 1.139591 38.035757
          -2.051357 3.526694 39.078068
          -1.966929 1.202129 40.265002
          -0.396581 1.810480 40.969939
          -0.091339 0.580863 39.639541
[...]
      <PointData Scalars="density">
        <DataArray type="Float64" Name="density" format="ascii">
          1000.272615
          931.622191
          1019.135195
          1016.487419
          1032.069883
          975.915020
          1051.947410
          1021.526038
          990.204493
          1034.916226
          986.279909
          990.146826
          923.822981
          1011.193271
          1008.322098
          1026.846869
          1032.358509
          961.814960
          1008.837394
          1017.450491
          1019.937210
          988.959198
          945.852305
          1000.819605
          1034.564235
          997.141702
          956.358372
          982.852326
          1016.229247
          1032.061781
          970.925204
          998.642294
          922.219318
          1027.187129
          1015.301287
          970.021746
          953.873182
          1030.813698
          953.478696
          996.538281
          945.747418
          1010.106774
          1000.338945
          1046.210434
          892.676872
          1057.871198
          999.654321
          988.856209
          872.234145
          910.938794
          980.662021
          592.394478
          989.834213
          592.413145
          958.047566
          1042.041661
          997.439293
          1009.472028
          988.026874
          1062.788544
          960.406417
          1022.600098
          1006.731911
          592.206406
          986.224989
          992.513694
          575.993083
          984.733015
          1035.523540
          592.390737
          955.535829
          1018.600104
          575.059311
          998.068257
          575.709315
          923.022689
          969.514184
          592.206406
          1071.662323
          992.513733
          575.993083
          984.732841
          1015.022854
          592.390737
          967.403469
          1009.472908
          1019.069110
          975.436228
          930.112779
          953.608466
          968.261692
          955.804391
          894.822377
          592.394478
          1038.008291
          592.413146
          1021.584926
          946.653923
          892.003199
          969.817766
          997.702101
          829.917348
          972.762681
          946.844516
          999.671430
          986.997691
          820.819493
          1026.322173
          1027.759495
          1008.862265
          968.338856
          982.942515
          983.849926
          991.070938
          1020.195428
          963.620227
          965.361493
          1044.257151
          965.937246
          811.064313
          961.473566
          939.702295
          947.299928
          945.788954
          995.403396
          820.576754
          1097.228784
          1054.372461
          1002.889544
          1006.211865
          948.476099
          1031.316914
          1010.971487
          980.154025
          822.935629
          1079.622596
          1016.367933
          1014.694400
          925.544136
          1012.411267
          941.715150
          1018.656740
          987.953177
          808.217853
          969.388292
          992.275166
          905.025313
          930.018831
          992.644040
          828.933700
          975.328226
          830.812733
          911.316413
          1000.115723
          994.387900
          924.005971
          927.878933
          1099.797328
          1016.347955
          1090.806931
          990.598390
          812.552942
          943.812645
          824.739942
          944.254400
          929.493831
          1023.791002
          812.674574
          1027.965040
          890.579600
          922.332066
          949.063258
          982.074400
          997.801317
          998.632957
          805.711313
          943.754767
          822.684314
          944.401500
          903.051211
          1023.790665
          823.448211
          994.387225
          906.197179
          926.647254
          918.323773
          1016.350325
          919.286339
          1077.818653
          1003.237638
          992.646070
          815.823347
          989.630300
          823.764295
          937.300018
          947.372458
          971.253635
          1025.087790
          986.802664
          830.423095
          946.228113
          1017.544752
          963.153145
          1039.322174
          932.338066
          958.723754
          1018.011282
          941.932559
          942.507598
          1018.763110
          997.781564
          1066.905555
          944.950678
          1013.311424
          1003.880532
          974.965722
          996.982983
          800.050906
          985.273649
          1000.188158
          957.517999
          1035.471861
          969.736374
          805.253454
          997.781473
          995.420993
          946.489073
          996.567772
          994.018446
          1042.346691
          948.106119
          1038.753549
          861.371119
          977.828626
          993.700506
          936.302689
          966.164376
          1018.762220
          994.111458
          1024.191698
          986.806510
          817.123184
          1046.346654
          1017.545244
          951.762281
          1020.754077
          828.718254
          936.563019
          1032.988489
          1007.504307
          978.294277
          949.271281
          828.608524
          941.913538
          998.995532
          1032.130195
          974.494755
          993.274348
          1049.341544
          967.784305
          991.315184
          992.890479
          995.965271
          960.744206
          1019.937901
          999.326337
          1049.048754
          1042.141589
          1017.901488
          1001.468922
          926.634033
          973.771664
          1076.573972
          965.672837
          939.390766
          1062.078488
          990.542273
          1060.004621
          1052.233584
          1000.276944
          818.586131
          1005.737717
          1052.341213
          1029.756649
          1022.402152
          958.821488
          1037.401389
          1023.998814
          825.314837
          936.696956
          1033.212176
          1006.774365
          960.920191
          1002.901206
          951.183677
          967.599996
          973.046800
          985.527986
          1022.650612
          1000.899991
          980.683713
          1093.982323
          1026.375580
          1033.011570
          970.357460
          998.981374
          1000.518041
          979.663845
          959.813839
          997.326303
          952.884635
          972.732689
          1023.534480
          1021.761254
          984.319855
          994.360497
          997.839072
          990.220975
          1018.813171
          1045.888345
          953.897807
          1067.849219
          975.720088
          996.757014
          1010.040838
          970.624624
          1110.286966
          1021.758847
          983.986140
          1032.549857
          1058.057446
          1033.818701
          971.490499
          998.978253
          954.108977
          976.477646
          960.676710
          962.287965
          974.691312
          986.186131
          1021.800237
          908.466900
          969.290617
          935.059118
          1009.107086
          976.235196
          985.073782
          1018.648977
          989.112215
          965.328347
          1027.715512
          972.764392
          1033.031443
          974.847318
          998.984500
          911.577577
          1010.026140
          972.686454
          997.348491
          951.239578
          964.896498
          956.122802
          1021.764349
          1014.450149
          994.757884
          977.263774
          938.513062
          998.079176
          1000.114101
          1012.883452
          1060.470718
          964.649303
          996.756463
          893.537683
          921.230880
          959.665031
          1021.761955
          1014.895535
          934.591370
          1022.967052
          1033.821829
          972.990459
          998.981052
          1067.950929
          950.839317
          999.200708
          1046.886389
          975.898502
          986.041036
          1020.297735
          930.378458
          1082.729477
          966.513983
          829.014021
          933.563776
          1032.047187
          1004.766875
          942.062676
          962.401418
          830.209248
          944.757173
          964.085190
          1052.053079
          956.821010
          1000.868188
          936.964646
          963.905162
          1007.244155
          967.296529
          991.870564
          1015.520655
          1008.057600
          1042.848248
          1051.032106
          991.921932
          947.377672
          924.751433
          1100.691440
          998.939089
          976.815822
          968.041153
          979.264325
          995.080790
          1017.785479
          987.533035
          1007.694860
          1041.123623
          829.390547
          993.367926
          989.927884
          1007.995207
          1079.134132
          986.567797
          998.106419
          1029.938768
          828.927872
          935.558289
          1033.179049
          1005.680561
          965.375078
          1058.753854
          981.996992
          1025.065148
          986.806301
          830.597895
          929.864380
          1017.542960
          985.088558
          1039.342510
          941.499155
          977.520719
          1056.659304
          1036.133278
          882.928257
          1018.764225
          997.781539
          855.476054
          923.742923
          926.499550
          1023.177808
          1008.299381
          1065.366062
          829.205513
          990.546961
          994.270002
          974.684854
          933.413270
          951.734629
          824.806426
          997.781477
          1014.986750
          981.494814
          1060.246608
          885.268854
          1044.196288
          1007.318514
          1038.755409
          981.426711
          1006.143320
          957.754393
          1033.987138
          1081.480878
          1018.763304
          1053.202705
          1024.192374
          986.806440
          824.283224
          1081.369249
          1017.544375
          1017.345241
          966.065375
          992.646040
          831.639006
          998.128316
          831.470619
          897.546688
          990.687343
          994.387272
          973.877444
          927.892995
          1033.907031
          1016.340964
          958.905721
          975.637518
          828.485912
          943.816739
          829.551907
          945.102957
          1054.315395
          1023.792583
          823.004860
          970.958122
          978.800805
          928.375460
          911.652225
          1071.615876
          1057.132078
          960.181006
          828.067322
          943.759185
          830.284229
          944.908330
          877.265593
          1023.792230
          820.940297
          994.387221
          987.013712
          926.643605
          955.361425
          1016.344647
          970.695750
          1055.611914
          933.241082
          992.646030
          820.139043
          969.420415
          827.568763
          936.558386
          1000.763413
          1023.859599
          979.170933
          946.913668
          830.898030
          979.893928
          1016.708839
          976.104065
          1018.347140
          828.828551
          1035.655647
          1119.108512
          975.856574
          1029.233459
          962.010678
          944.682976
          968.086409
          960.993819
          1044.554873
          992.099355
          1015.452936
          1044.843022
          828.027259
          977.288828
          1066.780941
          956.394984
          916.534856
          995.589789
          812.405935
          1050.879828
          974.833054
          976.619816
          1013.686507
          980.409283
          997.570690
          1099.317387
          978.372580
          830.524619
          1000.368186
          978.877981
          1050.054468
          950.405404
          982.018335
          913.550358
          1046.584256
          934.977946
          825.584913
          1032.334780
          978.622084
          919.488816
          987.397380
          885.711802
          592.394478
          1012.891764
          592.413146
          994.241977
          1002.066490
          1000.331711
          1009.472915
          975.858947
          1020.342933
          975.510273
          1026.402799
          951.248527
          592.206406
          988.675043
          992.143932
          575.993083
          975.824853
          987.449288
          592.390737
          1055.137412
          941.387035
          575.059311
          990.962139
          575.709315
          994.805223
          958.173320
          592.206406
          1059.422902
          992.145674
          575.993083
          975.821299
          969.443488
          592.390737
          998.566203
          1009.472886
          999.075024
          959.459117
          1019.230681
          963.527987
          1005.309304
          977.978104
          1024.937583
          592.394478
          1038.784359
          592.413146
          985.831525
          969.553116
          912.296674
          1048.029393
          1066.945607
          1127.814347
          986.093893
          1052.187130
          1006.536103
          1001.849821
          1022.542413
          1097.140882
          1075.933051
          1002.542361
          963.187289
          1013.003800
          955.084016
          947.658013
          953.479691
          838.573104
          943.229799
          1011.261389
          1017.472664
          988.083691
          990.453727
          1044.083940
          1002.810651
          1185.590452
          971.355282
          954.326420
          981.224515
          996.224522
          1017.780356
          924.677904
          1036.797422
          987.950370
          1019.555605
          1027.244553
          947.731975
          1097.135768
          946.236906
          1155.765056
          937.057122
          1012.807431
          1024.292899
          953.663678
          950.989834
          945.886576
          956.772166
          1092.406199
          1008.008027
        </DataArray>
        <DataArray type="Float64" Name="pressure" format="ascii">
          32.713761
          -8205.337082
          2296.223403
          1978.490267
          3848.385998
          -2890.197626
          6233.689148
          2583.124613
          -1175.460833
          4189.947099
          -1646.410935
          -1182.380901
          -9141.242334
          1343.192475
          998.651739
          3221.624283
          3883.021118
          -4582.204856
          1060.487230
          2094.058920
          2392.465225
          -1324.896186
          -6497.723427
          98.352610
          4147.708155
          -342.995708
          -5236.995309
          -2057.720921
          1947.509669
          3847.413759
          -3488.975508
          -162.924764
          -9333.681813
          3262.455458
          1836.154409
          -3597.390525
          -5535.218131
          3697.643700
          -5582.556477
          -415.406230
          -6510.309855
          1212.812931
          40.673421
          5545.252056
          -12878.775331
          6944.543735
          -41.481431
          -1337.254902
          -15331.902577
          -10687.344735
          -2320.557488
          -48912.662686
          -1219.894419
          -48910.422567
          -5034.292121
          5044.999379
          -307.284899
          1136.643405
          -1436.775130
          7534.625300
          -4751.229902
          2712.011806
          807.829367
          -48935.231260
          -1653.001348
          -898.356675
          -50880.830084
          -1832.038222
          4262.824813
          -48913.111604
          -5335.700547
          2232.012483
          -50992.882660
          -231.809156
          -50914.882204
          -9237.277273
          -3658.297903
          -48935.231257
          8599.478790
          -898.351995
          -50880.830057
          -1832.059063
          1802.742428
          -48913.111604
          -3911.583665
          1136.748996
          2288.293185
          -2947.652604
          -8386.466548
          -5566.984083
          -3808.596975
          -5303.473084
          -12621.314811
          -48912.662663
          4560.994868
          -48910.422536
          2590.191099
          -6401.529295
          -12959.616077
          -3621.868126
          -275.747918
          -20409.918223
          -3268.478337
          -6378.658045
          -39.428417
          -1560.277056
          -21501.660879
          3158.660702
          3331.139396
          1063.471802
          -3799.337333
          -2046.898247
          -1938.008899
          -1071.487396
          2423.451393
          -4365.572803
          -4156.620801
          5310.858137
          -4087.530445
          -22672.282390
          -4623.172036
          -7235.724542
          -6324.008584
          -6505.325563
          -551.592522
          -21530.789502
          11667.454127
          6524.695378
          346.745331
          745.423856
          -6182.868097
          3758.029686
          1316.578396
          -2381.517057
          -21247.724491
          9554.711497
          1964.151989
          1763.328031
          -8934.703656
          1489.352094
          -6994.182018
          2238.808801
          -1445.618752
          -23013.857597
          -3673.404951
          -926.980050
          -11396.962464
          -8397.740234
          -882.715193
          -20527.955995
          -2960.612870
          -20302.472011
          -10642.030486
          13.886726
          -673.452000
          -9119.283436
          -8654.528085
          11975.679414
          1961.754566
          10896.831678
          -1128.193260
          -22493.646974
          -6742.482549
          -21031.206990
          -6689.472016
          -8460.740294
          2854.920288
          -22479.051158
          3355.804791
          -13130.447954
          -9320.152107
          -6112.409017
          -2151.072001
          -263.841990
          -164.045196
          -23314.642451
          -6749.427999
          -21277.882376
          -6671.819985
          -11633.854674
          2854.879813
          -21186.214676
          -673.532957
          -11256.338510
          -8802.329501
          -9801.147271
          1962.038974
          -9685.639377
          9338.238363
          388.516562
          -882.471543
          -22101.198306
          -1244.363991
          -21148.284628
          -7523.997848
          -6315.304985
          -3449.563805
          3010.534773
          -1583.680265
          -20349.228609
          -6452.626482
          2105.370236
          -4421.622563
          4718.660828
          -8119.432082
          -4953.149534
          2161.353847
          -6968.092863
          -6899.088218
          2251.573206
          -266.212300
          8028.666558
          -6605.918638
          1597.370857
          465.663798
          -3004.113348
          -362.042078
          -23993.891235
          -1767.162107
          22.578988
          -5097.840142
          4256.623277
          -3631.635130
          -23369.585576
          -266.223225
          -549.480814
          -6421.311190