<?xml version="1.0"?>
<VTKFile type="PolyData" version="0.1" byte_order="LittleEndian">
  <PolyData>
    <Piece NumberOfPoints="686" NumberOfVerts="686" NumberOfLines="0" NumberOfStrips="0" NumberOfPolys="0">
      <Points>
        <DataArray type="Float64" NumberOfComponents="3" format="ascii">
          -2.408772 -1.163127 6.590624
          -2.366141 2.410628 4.061849
          1.632908 3.887697 0.091023
          -1.592580 -3.007833 5.355882
          -0.783115 -3.262213 5.815193
          -0.943815 -0.679841 6.841934
          -1.568681 3.845881 2.637939
          -2.399722 -1.177104 6.572315
          -0.910907 1.930025 5.002473
          -5.510378 -2.421434 5.518871
          -5.124515 -3.835757 5.271170
          -0.958530 1.908254 5.096323
          -1.456520 0.167712 6.854445
          -2.160458 0.588512 6.338389
          -2.487860 -1.143564 6.551379
          -1.725115 0.364561 10.250969
          3.732021 -3.611004 4.494613
          -5.501620 -2.427880 5.512950
          -3.769265 -0.393752 2.830564
          -5.206751 -3.723217 5.347080
          -2.179804 0.610393 6.318275
          -3.159420 -0.669002 5.948398
          -1.105869 1.781538 7.393965
          -1.436208 0.145537 6.895065
          0.575248 -3.561514 3.945211
          -2.388871 -1.103640 6.546648
          -5.860173 -1.510015 4.051839
          -5.480827 -2.439864 5.504296
          -2.424639 -1.047868 6.443373
          -3.543238 -3.929326 8.067068
          -3.419038 -0.841176 6.538866
          -2.485778 -1.087508 6.361722
          1.202922 3.589551 5.023677
          -5.622936 3.281720 6.086883
          -2.151096 0.617800 6.327362
          -3.156278 -0.632189 5.913706
          -0.856771 2.017754 5.119145
          -4.847543 2.987832 6.915790
          -3.191954 -0.676411 5.941975
          -1.922376 3.873994 7.532596
          -1.440657 0.146475 6.856263
          -2.158856 0.616688 6.287452
          -2.464750 -1.079953 6.358461
          -2.503934 3.393640 5.802594
          -2.291148 2.405107 4.082343
          -3.343408 -0.849800 6.513753
          -2.534457 3.393718 5.781497
          1.047131 3.609330 5.082547
          -1.518321 3.919503 2.549700
          -0.178022 -2.519434 0.000000
          -5.233745 -3.759830 5.209051
          -5.328822 -2.585547 0.000000
          -3.762160 -0.384541 2.872731
          -5.320565 -2.599655 0.000000
          -1.992446 3.616820 0.176410
          0.060660 -1.225505 0.000000
          -1.910962 3.794640 7.548910
          -4.396164 -2.253970 0.000000
          -1.534338 -3.120956 5.381213
          5.942467 -1.944666 6.737585
          -0.929491 -0.667484 6.820417
          -3.995087 -2.384472 0.000000
          -4.868115 2.937331 6.954260
          -5.240576 0.004293 0.000000
          -0.786127 -1.738129 0.000000
          -2.394960 -0.027231 0.000000
          -5.314392 -2.577868 0.000000
          -2.404416 -0.070227 0.000000
          -5.828757 -1.460800 3.970113
          -5.252484 0.004294 0.000000
          -2.335830 2.380697 3.999125
          2.634729 -2.345214 5.177611
          -5.299561 -0.049998 0.000000
          -2.371317 -0.050058 0.000000
          -5.193504 -0.050000 0.000000
          -5.819638 -1.540150 4.027488
          3.764213 -3.558753 4.549240
          -5.240587 -0.104294 0.000000
          -0.041442 1.053509 0.000000
          -2.394882 -0.072773 0.000000
          -5.062847 2.118934 0.000000
          -2.404298 -0.029712 0.000000
          -1.879824 3.793167 7.472445
          -5.252483 -0.104293 0.000000
          2.533370 3.778158 9.985555
          -4.428445 2.177422 0.000000
          -0.714712 -3.271166 5.773458
          -0.983388 1.868679 7.398695
          2.257912 -3.301148 0.499971
          -4.005909 2.459573 0.000000
          -1.499325 1.619707 7.342404
          -0.013805 2.246251 0.000000
          -0.726653 -2.941207 6.278220
          -4.544271 1.484727 0.000000
          0.625226 -3.622115 3.998220
          -4.253243 3.976806 0.000000
          0.748210 3.918123 6.083506
          -0.460137 1.180950 0.000000
          -3.029766 -0.190952 5.428722
          1.107489 3.539083 5.074304
          2.772668 -2.291919 5.170576
          -3.731932 -1.360807 0.000000
          -1.440566 0.153947 6.898334
          -0.783245 -3.281466 5.822700
          -3.667883 -0.385824 2.848146
          1.521787 3.944809 0.141655
          -4.708133 -3.348711 0.000000
          -3.553195 -3.914376 8.064389
          -4.767009 2.883008 6.917746
          3.762748 -3.584660 4.455228
          -3.976470 -2.555069 0.000000
          -3.121163 -3.520288 6.432924
          -1.628927 3.909114 2.615791
          0.831705 -1.608188 0.000000
          -1.723065 0.380045 10.385499
          1.881965 -2.771272 5.258444
          0.579298 -3.579718 4.017738
          -0.363206 -1.265047 0.000000
          -1.590346 -3.016495 5.383880
          -3.419889 -0.054202 0.000000
          -2.420321 -1.174685 6.560731
          -1.561337 3.805386 2.593782
          -3.173112 -0.643083 5.964013
          -1.611446 -3.248331 5.374973
          -2.149562 0.609616 6.314079
          -4.125473 -0.053264 0.000000
          -2.467443 -1.163752 6.404850
          -0.271891 1.024722 0.000000
          -1.597625 -3.103018 5.293654
          -1.524604 3.920997 2.555677
          -0.938490 -0.685532 6.840939
          -0.460141 1.180950 0.000000
          -2.524319 3.416086 5.786477
          2.752527 -2.421415 5.194905
          -4.288012 2.964537 0.000000
          -3.710322 -0.332980 2.854483
          -1.907492 3.924176 7.510992
          -5.790238 -1.567530 4.023608
          -3.890819 2.286265 0.000000
          -5.581093 3.302664 6.207562
          3.780264 3.025778 4.179823
          1.862818 -2.783410 5.248000
          3.633206 2.963775 4.003654
          -3.738284 0.855747 0.000000
          -5.494529 -2.441452 5.506871
          -5.633938 3.352184 6.170381
          -1.886541 3.915885 7.514884
          -0.715248 -1.773176 0.000000
          -4.383283 -2.277449 0.000000
          -3.736981 -1.368631 0.000000
          -0.662384 -2.905141 6.269077
          -3.737534 -1.363765 0.000000
          -4.033765 -2.414300 0.000000
          0.184050 -1.322289 0.000000
          -4.426570 -2.283893 0.000000
          0.423664 -2.449211 0.000000
          -0.375446 -3.723689 0.000000
          -5.135041 -3.842280 5.206039
          -0.644284 -3.915498 0.000000
          0.324576 -1.432727 0.000000
          -4.042513 -2.507955 0.000000
          -3.415595 -0.049266 0.000000
          -0.301539 -3.609862 0.000000
          -4.709185 -3.352985 0.000000
          -0.131755 -3.897357 0.000000
          -3.862499 -2.467589 0.000000
          -0.729411 -3.847265 0.000000
          -4.120366 -0.058446 0.000000
          -4.771179 2.989828 6.883981
          -3.566719 -3.886425 8.056631
          -2.515893 2.596664 7.664555
          -5.793113 -1.424437 3.962743
          -1.667728 -0.798556 6.761332
          -5.244262 -3.723088 5.327058
          -2.037657 3.643429 0.100395
          -3.418695 -0.045798 0.000000
          -0.298666 3.538528 0.000000
          -4.279742 2.966694 0.000000
          0.176529 3.902489 0.000000
          -4.032807 2.440629 0.000000
          -0.728805 3.746863 0.000000
          -4.121874 -0.060854 0.000000
          -4.385142 2.184037 0.000000
          0.122540 2.369086 0.000000
          -0.267401 3.478420 0.000000
          4.331501 3.868544 8.442434
          -0.638941 3.809306 0.000000
          -0.340381 1.407424 0.000000
          -3.890819 2.286266 0.000000
          -0.041443 1.053508 0.000000
          -4.401877 2.152232 0.000000
          -3.730628 0.849800 0.000000
          -1.094265 1.744151 7.428796
          -3.732611 0.855033 0.000000
          -4.005938 2.459576 0.000000
          -0.460139 1.180948 0.000000
          0.790562 -1.509436 0.000000
          0.352729 -3.618372 0.000000
          -4.424225 -2.261115 0.000000
          -3.731379 -1.365673 0.000000
          -4.026415 -2.529842 0.000000
          -0.730698 -3.912818 0.000000
          0.166303 -1.312232 0.000000
          -0.279624 -3.662864 0.000000
          2.568723 3.729803 9.951063
          -1.658345 -3.059829 5.407281
          -5.682821 3.271238 6.132998
          -0.926764 -0.674688 6.820219
          2.265223 -3.317644 0.493720
          -0.638042 -3.905978 0.000000
          -4.398998 -2.296198 0.000000
          -1.896134 3.785518 7.449970
          -0.210525 -2.382345 0.000000
          -0.638029 -2.963134 6.235564
          0.032052 -1.387623 0.000000
          -3.344019 -0.877809 6.474700
          -3.863102 -2.456402 0.000000
          -3.422988 -0.050734 0.000000
          -1.500303 1.602525 7.340065
          -4.803903 2.942072 6.862297
          2.616188 3.778976 9.991549
          -3.577800 -3.939647 8.065732
          -1.497359 1.600815 7.347091
          -4.127274 -0.056829 0.000000
          -4.428636 2.174888 0.000000
          -2.281641 2.450085 4.062614
          -0.108795 2.188273 0.000000
          -5.692809 3.344609 6.156176
          0.732773 1.205329 0.000000
          -1.493872 1.640669 7.329271
          -3.880491 2.300333 0.000000
          -0.213126 3.571103 0.000000
          -0.923118 1.986319 5.154798
          0.611110 3.624002 3.947079
          -1.463615 0.078772 9.958626
          -3.150719 -0.649164 5.941209
          -1.989572 3.695119 0.102784
          -0.641918 3.813559 0.000000
          -0.144494 1.418047 0.000000
          0.181691 3.475840 0.000000
          -4.385142 2.184037 0.000000
          -3.736300 0.850514 0.000000
          -3.890820 2.286263 0.000000
          -0.731217 3.811720 0.000000
          -0.281767 1.429047 0.000000
          -5.202865 -3.733925 5.358265
          -4.710763 -3.353149 0.000000
          -0.287843 -3.962910 0.000000
          0.219050 -3.731588 0.000000
          -0.336853 -3.855083 0.000000
          -3.941918 -2.378286 0.000000
          0.527287 -3.621411 3.978213
[...]
      <PointData Scalars="density">
        <DataArray type="Float64" Name="density" format="ascii">
          990.864005
          1019.769098
          914.160490
          992.580627
          1053.457839
          816.044355
          1080.487373
          1013.412243
          991.309099
          822.874668
          1011.840160
          970.581582
          993.619052
          985.413931
          1009.153765
          1005.657234
          1014.359574
          823.209598
          1004.921715
          988.446775
          1004.376408
          998.135687
          963.371838
          993.885892
          1004.206939
          1049.217000
          1044.343661
          827.500784
          989.303061
          988.128755
          1010.875630
          952.613827
          995.122586
          1080.158959
          1008.759933
          967.514437
          982.954437
          1034.231108
          971.027039
          1073.709703
          1009.720412
          980.898740
          938.702263
          1002.454829
          997.468720
          1033.852488
          1009.458624
          967.755385
          992.304943
          1000.000000
          1016.473426
          617.881318
          1013.643763
          619.239051
          979.851104
          1000.000000
          1007.424045
          1000.000000
          1042.531126
          999.661182
          807.444075
          1000.000000
          1010.381070
          1000.000000
          1000.000000
          1000.000000
          619.238917
          1000.000000
          955.117988
          1000.000000
          976.492412
          1035.206996
          1000.000000
          1000.000000
          1000.000000
          1126.429943
          1036.706711
          1000.000000
          999.929647
          1000.000000
          500.000000
          1000.000000
          1077.429105
          1000.000000
          1005.174691
          1000.000601
          940.877985
          997.305074
          821.331829
          1000.042025
          814.052890
          1006.419111
          993.290435
          500.000000
          997.807613
          500.000000
          1000.067111
          999.880363
          500.000000
          1029.251472
          1000.370273
          831.445235
          991.571198
          997.487939
          1010.688041
          927.922474
          831.512149
          1013.116615
          988.878641
          939.308851
          1000.000000
          1015.805149
          1016.219730
          1000.000000
          988.012618
          1004.919626
          1057.633465
          1000.000000
          1016.613748
          831.320994
          1068.780676
          1004.099459
          990.243626
          1001.073323
          1013.862616
          831.276237
          1035.579124
          999.836043
          986.024734
          1041.879908
          805.278898
          999.869841
          1014.361735
          1097.092484
          831.329266
          1021.681624
          947.269373
          1031.635331
          999.985163
          922.458436
          969.221527
          1008.096718
          1012.147691
          831.505496
          820.407863
          1089.339891
          936.447591
          1000.000000
          1000.000000
          831.445235
          1034.659668
          831.085962
          1000.000000
          1000.000000
          1000.000000
          1000.000000
          1000.000000
          979.162637
          1000.000000
          1000.000000
          1000.000000
          831.199918
          1000.000000
          829.824423
          1000.000000
          1000.000000
          1000.000000
          831.143402
          978.980091
          991.582345
          500.000000
          812.227911
          973.632985
          1008.203138
          977.048106
          831.320994
          1000.000000
          831.329266
          1000.000000
          1000.009114
          1000.000000
          831.180897
          999.999346
          999.794362
          1000.000000
          500.000000
          1000.000000
          999.910171
          999.986375
          999.929531
          1000.000036
          831.505496
          951.063286
          831.028916
          1000.001578
          999.876359
          1000.000000
          1000.000000
          1000.000000
          831.085962
          1000.000000
          1000.000000
          1000.000000
          1000.000000
          1010.793837
          951.332526
          1027.635142
          814.832310
          819.888851
          1000.000000
          1000.000000
          1002.458801
          1000.000000
          995.824973
          1000.000000
          993.440669
          1000.000000
          831.199918
          806.561799
          1019.434405
          1047.962106
          989.870043
          808.171103
          831.761315
          1000.000610
          986.705101
          987.124559
          982.382059
          1000.000000
          768.509632
          1000.028347
          1000.000000
          1001.875987
          979.390332
          995.277034
          998.549585
          1035.170911
          1000.000000
          1000.013451
          1000.000000
          999.999361
          831.028916
          999.984699
          1000.000000
          1000.078109
          976.319314
          831.257845
          1000.000000
          1000.000000
          1000.000000
          1000.000000
          1005.953604
          831.382904
          1000.000000
          1000.000000
          1027.083612
          1000.000000
          1000.000000
          1000.000000
          1005.623358
          1000.000000
          1000.000000
          999.755221
          1000.000000
          1000.000000
          988.502470
          986.228303
          1033.671320
          973.949663
          944.673354
          997.993388
          1051.736984
          1059.772022
          989.332842
          1000.285742
          1000.122663
          1007.870791
          999.837534
          1000.119804
          979.736195
          831.192080
          1000.269087
          1005.999326
          994.607930
          1000.130617
          1000.252924
          999.985200
          917.108308
          831.192080
          1000.000000
          1000.000000
          1000.000000
          999.980959
          1005.149690
          1000.000000
          1000.000000
          1000.000000
          1000.000000
          1000.000000
          1000.000000
          1005.533250
          1000.000000
          992.185029
          1000.000000
          1000.000000
          1000.000000
          972.858870
          1000.000000
          993.750562
          1000.000000
          999.506881
          500.000000
          1000.000000
          1000.000000
          991.269456
          998.834280
          500.000000
          1032.886146
          1023.936902
          1008.568652
          963.926617
          1067.833054
          985.316813
          1000.000000
          984.904544
          928.214186
          1000.156397
          1000.000000
          1021.397479
          1000.169571
          1013.498208
          1000.000000
          1000.000000
          1000.000000
          1021.906443
          1000.000000
          999.926934
          1006.092069
          1000.000000
          1000.000000
          1000.000000
          999.846785
          1006.441765
          1000.000000
          1000.000000
          1000.000000
          1000.000000
          1000.000000
          1000.000000
          998.279716
          1000.000000
          1032.130768
          1000.000000
          1000.000000
          1000.000000
          970.597985
          1000.000000
          997.820515
          1000.000000
          996.311477
          967.792728
          1000.000000
          1000.000000
          998.797057
          1012.018054
          500.000000
          991.413265
          924.878979
          1115.435072
          1009.498507
          973.173963
          997.649087
          1000.000000
          958.724586
          979.226491
          1000.080460
          1000.000000
          947.045977
          1000.115558
          992.354923
          1000.000000
          1000.000000
          1000.000000
          1021.552998
          999.995336
          998.414788
          1005.675788
          1000.000000
          1000.000000
          1000.000000
          999.999147
          1027.780337
          998.168175
          831.308445
          1000.000000
          1000.000000
          1000.000000
          1000.000000
          1035.164495
          831.211901
          1000.000000
          1000.000000
          990.894708
          1000.000000
          1000.000000
          1000.000000
          996.891512
          1000.000000
          1000.000000
          999.333466
          1000.000000
          1000.000000
          1024.466301
          500.000000
          987.875308
          829.041667
          998.527022
          959.626694
          980.657671
          1013.987490
          1000.501342
          1006.824461
          999.995222
          990.693762
          1000.000000
          1000.063919
          977.631549
          831.360676
          987.124559
          1007.074895
          957.376380
          999.910288
          1000.078427
          1000.000000
          1009.264622
          831.360676
          1000.000000
          1000.000000
          1000.000000
          1000.000000
          911.982389
          1000.000000
          1000.000000
          1000.000000
          831.452318
          1000.000000
          1000.000000
          1000.000000
          1000.000000
          1005.706509
          1034.299017
          820.393585
          990.763224
          1066.320042
          1000.000000
          1000.000000
          978.907009
          1000.000000
          500.000000
          1000.000000
          995.389347
          1000.000000
          831.418596
          828.055819
          983.344666
          1051.321656
          1012.054929
          901.221180
          831.601508
          1000.000000
          986.084346
          1000.077673
          1056.046121
          999.873657
          1006.695781
          1000.000000
          1000.000000
          1012.904729
          957.257257
          1011.990976
          998.776867
          1038.144875
          1000.000000
          999.994869
          1000.000000
          1000.000000
          831.153396
          1000.000000
          1000.000000
          999.910679
          1000.000000
          1000.000000
          831.079572
          978.975124
          831.452323
          1000.000000
          1000.000000
          1000.000000
          1000.000000
          1000.000000
          929.352633
          1000.000000
          1000.000000
          1000.000000
          831.110012
          1000.000000
          831.211901
          1000.000000
          1000.000000
          1000.000000
          830.721341
          828.794053
          1003.077819
          985.865389
          999.080006
          979.766930
          998.170071
          1069.317775
          831.110012
          1000.000000
          831.162748
          1000.000000
          1000.000000
          1000.000000
          831.497419
          1000.000000
          987.124559
          1000.000000
          1008.702272
          1000.000000
          999.910254
          1000.000000
          999.932775
          1000.000000
          831.370830
          984.763629
          831.153396
          1000.000000
          1000.138813
          1031.943550
          1004.988870
          1010.534643
          831.079565
          965.923514
          941.607527
          976.437774
          993.687669
          831.308447
          978.827709
          1030.777418
          987.557616
          1000.000000
          1015.079526
          1042.950393
          1000.000000
          986.926148
          939.885616
          963.585280
          1000.000000
          1031.066911
          831.418596
          817.250701
          981.780284
          944.132297
          975.194608
          1008.214905
          831.282286
          965.528930
          999.926983
          929.397856
          956.914113
          998.019137
          1000.000000
          978.566372
          995.893660
          831.162748
          979.763703
          918.046900
          980.631751
          1000.000000
          977.113502
          1007.123389
          1057.496172
          1008.511901
          831.370830
          964.001492
          1025.210860
          995.470889
          1000.000000
          993.778367
          617.881318
          1052.074792
          619.238994
          968.389908
          1000.000000
          995.361512
          1000.000000
          991.003757
          925.770950
          1003.548196
          1000.000000
          1003.312938
          999.999972
          1000.000000
          1000.000000
          619.238974
          1000.000000
          1047.703072
          1000.000000
          829.283722
          1014.306163
          1000.000010
          1000.000000
          1000.000005
          1020.591842
          819.836026
          1000.000017
          999.996729
          1000.000000
          618.065886
          1000.000000
          980.002165
          1000.000012
          1015.992896
          1000.000000
          1016.322129
          953.659303
          823.562392
          1000.000000
          1009.476506
          1000.083360
          996.760613
          619.972472
          947.486440
          618.012382
          923.531051
          1000.000000
          1019.107349
          934.923112
          990.176957
          1036.832638
          822.059056
          992.972639
          992.363582
          1003.081153
          1019.983314
          826.610420
          1036.974891
          967.189035
          942.302388
          1038.324381
          1070.375208
          1023.596140
          500.000000
          822.932864
          1013.073408
          982.611691
          1015.810100
          1047.293257
          990.405694
          990.479195
          950.941535
          999.717453
          979.648882
          996.580259
          1019.834723
          1021.113942
          989.406019
          1019.013223
          995.758719
          993.331418
          1000.534815
          991.222877
          829.783639
          823.523368
          958.601918
          500.000000
          1014.265762
          928.725089
          1003.905894
          932.325727
          996.773534
          827.893119
          1006.719757
          1017.996208
          1026.297064
        </DataArray>
        <DataArray type="Float64" Name="pressure" format="ascii">
          -1096.319368
          2372.291781
          -10300.741196
          -890.324726
          6414.940631
          -22074.677341
          9658.484718
          1609.469176
          -1042.908162
          -21255.039822
          1420.819145
          -3530.210152
          -765.713743
          -1750.328226
          1098.451848
          678.868037
          1723.148885
          -21214.848289
          590.605834
          -1386.387021
          525.168994
          -223.717573
          -4395.379425
          -733.692986
          504.832735
          5906.040057
          5321.239378
          -20699.905864
          -1283.632658
          -1424.549398
          1305.075633
          -5686.340794
          -585.289739
          9619.075039
          1051.192006
          -3898.267569
          -2045.467561
          4107.732945
          -3476.755327
          8845.164375
          1166.449408
          -2292.151163
          -7355.728406
          294.579506
          -303.753540
          4062.298565
          1135.034865
          -3869.353853
          -923.406860
          0.000000
          1976.811109
          -45854.241864
          1637.251603
          -45691.313924
          -2417.867483
          -0.000000
          890.885350
          0.000002
          5103.735104
          -40.658130
          -23106.710954
          -0.000000
          1245.728359
          -0.000000
          0.000000
          -0.000000
          -45691.329918
          -0.000000
          -5385.841411
          -0.000000
          -2820.910569
          4224.839564
          -0.000000
          0.000000
          0.000000
          15171.593193
          4404.805299
          -0.000000
          -8.442403
          -0.000000
          -60000.000000
          -0.000000
          9291.492610
          -0.000000
          620.962917
          0.072167
          -7094.641835
          -323.391160
          -21440.180503
          5.043051
          -22313.653236
          770.293316
          -805.147808
          -60000.000000
          -263.086410
          -60000.000000
          8.053277
          -14.356404
          -60000.000000
          3510.176650
          44.432799
          -20226.571817
          -1011.456297
          -301.447291
          1282.564932
          -8649.303142
          -20218.542173
          1573.993754
          -1334.563121
          -7282.937934
          0.000000
          1896.617833
          1946.367644
          -0.000000
          -1438.485843
          590.355166
          6916.015813
          0.000000
          1993.649741
          -20241.480671
          8253.681086
          491.935024
          -1170.764885
          128.798795
          1663.513944
          -20246.851518
          4269.494862
          -19.674849
          -1677.031894
          5025.588904
          -23366.532266
          -15.619101
          1723.408196
          11651.098130
          -20240.488023
          2601.794834
          -6327.675295
          3796.239755
          -1.780441
          -9304.987687
          -3693.416813
          971.606124
          1457.722930
          -20219.340467
          -21551.056467
          10720.786872
          -7626.289119
          0.000000
          0.000001
          -20226.571817
          4159.160218
          -20269.684549
          0.000000
          -0.000000
          0.000001
          -0.000000
          -0.000000
          -2500.483563
          0.000000
          -0.000000
          -0.000000
          -20256.009789
          -0.000000
          -20421.069267
          -0.000000
          -0.000000
          -0.000000
          -20262.791794
          -2522.389089
          -1010.118638
          -60000.000000
          -22532.650706
          -3164.041819
          984.376537
          -2754.227220
          -20241.480670
          0.000000
          -20240.488023
          0.000000
          1.093693
          -0.000000
          -20258.292379
          -0.078423
          -24.676545
          0.000000
          -60000.000000
          0.000000
          -10.779486
          -1.635051
          -8.456330
          0.004267
          -20219.340467
          -5872.405673
          -20276.530084
          0.189387
          -14.836874
          -0.000000
          0.000000
          -0.000001
          -20269.684549
          -0.000000
          -0.000000
          0.000000
          0.000000
          1295.260445
          -5840.096901
          3316.217053
          -22220.122768
          -21613.337850
          0.000000
          0.000001
          295.056109
          0.000000
          -501.003204
          0.000000
          -787.119723
          -0.000000
          -20256.009789
          -23212.584132
          2332.128615
          5755.452705
          -1215.594887
          -23019.467594
          -20188.642260
          0.073212
          -1595.387859
          -1545.052898
          -2114.152901
          -0.000000
          -27778.844202