<?xml version="1.0"?>
<VTKFile type="PolyData" version="0.1" byte_order="LittleEndian">
  <PolyData>
    <Piece NumberOfPoints="686" NumberOfVerts="686" NumberOfLines="0" NumberOfStrips="0" NumberOfPolys="0">
      <Points>
        <DataArray type="Float64" NumberOfComponents="3" format="ascii">
          -1.969762 -0.963078 7.425444
          -1.892451 1.705544 5.793986
          1.094438 3.325681 2.638862
          -1.250856 -2.488149 6.665827
          -0.587392 -3.636691 6.821552
          -0.627096 -0.414506 7.540775
          -1.214518 3.462448 4.444329
          -1.927499 -0.777763 7.482556
          -0.607807 1.414678 6.333469
          -4.454776 -1.822697 6.669435
          -3.895923 -3.723147 6.591006
          -0.611543 1.397019 6.333513
          -1.421617 0.087676 7.664951
          -2.008866 0.437970 7.129379
          -2.002517 -0.936696 7.472829
          -1.278416 0.232377 10.234551
          2.723133 -3.941474 5.859215
          -4.453706 -1.770719 6.662799
          -2.696823 -0.323704 4.654886
          -4.002596 -3.684853 6.417470
          -2.057073 0.422201 7.145173
          -2.574747 -0.530780 7.019884
          -0.798798 1.415226 8.075604
          -1.438300 0.061836 7.685865
          0.621914 -3.938024 5.570769
          -1.944129 -0.788461 7.476359
          -5.106894 -1.066408 5.515880
          -4.442835 -1.792732 6.660700
          -1.969025 -0.902816 7.346646
          -2.726116 -3.240880 8.478143
          -2.717591 -0.648290 7.320379
          -2.043066 -0.879067 7.347530
          0.859189 3.968830 6.219061
          -5.398994 3.810869 7.172829
          -2.012888 0.421833 7.133664
          -2.543176 -0.541399 6.984585
          -0.751955 1.404320 6.243302
          -3.656349 2.144518 7.637553
          -2.523442 -0.518048 7.026674
          -1.478129 3.557812 8.026420
          -1.424124 0.082482 7.630897
          -2.067975 0.425045 7.133302
          -2.016115 -0.773153 7.402726
          -1.895794 3.900494 6.992002
          -1.922016 1.740708 5.763212
          -2.692379 -0.596806 7.251286
          -1.839845 3.918609 6.966815
          0.703708 3.949803 6.226068
          -1.233765 3.437270 4.416898
          -0.178022 -2.519434 0.000000
          -3.922969 -3.665601 6.601717
          -5.328814 -2.585520 0.000000
          -2.796664 -0.307080 4.651641
          -5.320602 -2.599659 0.000000
          -1.376104 3.564094 2.715809
          0.060660 -1.225505 0.000000
          -1.410073 3.571399 8.069735
          -4.396164 -2.253970 0.000000
          -1.162573 -2.486925 6.510416
          4.549534 -1.553989 7.500328
          -0.627733 -0.418115 7.540239
          -3.995087 -2.384472 0.000000
          -3.597421 2.187995 7.650140
          -5.240576 0.004293 0.000000
          -0.786127 -1.738129 0.000000
          -2.394960 -0.027231 0.000000
          -5.314363 -2.577891 0.000000
          -2.404416 -0.070227 0.000000
          -5.177695 -1.038920 5.486592
          -5.252484 0.004294 0.000000
          -1.949299 1.713904 5.747055
          2.123818 -3.134373 6.500395
          -5.299561 -0.049998 0.000000
          -2.371317 -0.050058 0.000000
          -5.193504 -0.050000 0.000000
          -5.112497 -1.141137 5.550548
          2.761049 -3.893328 5.854344
          -5.240587 -0.104294 0.000000
          -0.041354 1.053612 0.000000
          -2.394882 -0.072773 0.000000
          -5.062847 2.118934 0.000000
          -2.404298 -0.029712 0.000000
          -1.463726 3.609308 8.156678
          -5.252483 -0.104293 0.000000
          1.934034 3.496044 10.005372
          -4.428368 2.177143 0.000000
          -0.586809 -3.597862 6.824722
          -0.809412 1.555848 8.041211
          1.665412 -2.394855 3.012707
          -4.013615 2.457005 0.000000
          -1.480297 1.227307 7.953303
          -0.012332 2.259495 0.000000
          -0.531294 -3.525851 7.111127
          -4.544271 1.484727 0.000000
          0.615062 -3.940140 5.576965
          -4.482361 3.412430 0.305821
          0.531303 3.467919 7.158095
          -0.460266 1.181088 0.000000
          -2.214850 -1.591289 6.561010
          0.877331 3.963467 6.210584
          2.078398 -2.997797 6.418918
          -3.731928 -1.360808 0.000000
          -1.416748 0.058224 7.633259
          -0.623315 -3.627382 6.852208
          -2.803523 -0.324213 4.660224
          1.038322 3.271500 2.672896
          -4.706619 -3.348096 0.000000
          -2.747154 -3.227713 8.508246
          -3.653571 2.173971 7.644980
          2.747429 -3.795953 5.845009
          -3.976470 -2.555069 0.000000
          -2.297081 -3.987838 7.445386
          -1.209894 3.348714 4.475943
          0.831705 -1.608188 0.000000
          -1.277510 0.187690 10.088706
          1.318726 -3.502782 6.396346
          0.528386 -3.973500 5.523330
          -0.363206 -1.265047 0.000000
          -1.331868 -2.432690 6.635329
          -3.419890 -0.054203 0.000000
          -1.969519 -0.905564 7.502570
          -1.162852 3.423878 4.527638
          -2.542650 -0.578343 7.040383
          -1.314014 -2.416638 6.530857
          -2.006854 0.433586 7.133577
          -4.121398 -0.061721 0.000000
          -1.950851 -0.826312 7.316839
          -0.271956 1.024303 0.000000
          -1.223600 -2.374503 6.527620
          -1.176252 3.394011 4.548070
          -0.636949 -0.423774 7.550557
          -0.460299 1.181084 0.000000
          -1.867966 3.896203 6.956904
          2.131408 -3.139609 6.490249
          -4.288013 2.964535 0.000000
          -2.731424 -0.359561 4.626331
          -1.517401 3.557751 8.163282
          -5.156222 -1.107375 5.480243
          -3.888143 2.288135 0.000000
          -5.375834 3.845185 7.044214
          3.038373 2.349887 5.909437
          1.346685 -3.459871 6.419731
          2.679533 3.633038 5.581427
          -3.738284 0.855747 0.000000
          -4.452726 -1.793517 6.659622
          -5.387100 3.724297 7.107766
          -1.498414 3.513649 8.059245
          -0.715248 -1.773176 0.000000
          -4.383283 -2.277449 0.000000
          -3.736985 -1.368630 0.000000
          -0.531315 -3.539216 7.212182
          -3.737530 -1.363761 0.000000
          -4.033765 -2.414300 0.000000
          0.184050 -1.322289 0.000000
          -4.426570 -2.283893 0.000000
          0.423664 -2.449211 0.000000
          -0.375446 -3.723689 0.000000
          -3.867563 -3.710979 6.564430
          -0.644284 -3.915498 0.000000
          0.324576 -1.432727 0.000000
          -4.042513 -2.507955 0.000000
          -3.415596 -0.049268 0.000000
          -0.301539 -3.609862 0.000000
          -4.708689 -3.350351 0.000000
          -0.131755 -3.897357 0.000000
          -3.862499 -2.467589 0.000000
          -0.729411 -3.847265 0.000000
          -4.127647 -0.057332 0.000000
          -3.588546 2.201008 7.734776
          -2.713384 -3.177452 8.500229
          -1.878135 1.924015 8.611527
          -5.224663 -1.107803 5.575529
          -1.179141 -0.591354 7.110699
          -3.975817 -3.646243 6.414526
          -1.419988 3.624518 2.777303
          -3.418694 -0.045798 0.000000
          -0.298666 3.538528 0.000000
          -4.279742 2.966696 0.000000
          0.176529 3.902489 0.000000
          -4.013615 2.457005 0.000000
          -0.728805 3.746863 0.000000
          -4.121780 -0.052803 0.000000
          -4.385151 2.184138 0.000000
          0.130771 2.384886 0.000000
          -0.267401 3.478420 0.000000
          5.312957 2.519746 8.723348
          -0.638941 3.809306 0.000000
          -0.340891 1.407404 0.000000
          -3.888143 2.288135 0.000000
          -0.041360 1.053615 0.000000
          -4.402055 2.152059 0.000000
          -3.730627 0.849800 0.000000
          -0.801386 1.564100 7.985011
          -3.732612 0.855034 0.000000
          -4.013615 2.457005 0.000000
          -0.460285 1.181062 0.000000
          0.790562 -1.509436 0.000000
          0.352729 -3.618372 0.000000
          -4.424225 -2.261115 0.000000
          -3.731382 -1.365677 0.000000
          -4.026415 -2.529842 0.000000
          -0.730698 -3.912818 0.000000
          0.166303 -1.312232 0.000000
          -0.279624 -3.662864 0.000000
          2.021074 3.458984 9.997150
          -1.240439 -2.337652 6.558298
          -5.373095 3.696627 7.126455
          -0.636183 -0.415499 7.545446
          1.666300 -2.379807 2.999344
          -0.638042 -3.905978 0.000000
          -4.398998 -2.296198 0.000000
          -1.502590 3.579724 8.170288
          -0.210525 -2.382345 0.000000
          -0.520142 -3.566226 7.233226
          0.032052 -1.387623 0.000000
          -2.712910 -0.670239 7.311525
          -3.863102 -2.456402 0.000000
          -3.422988 -0.050732 0.000000
          -1.482773 1.223403 7.963335
          -3.634129 2.089877 7.732993
          2.001298 3.479692 9.929400
          -2.738477 -3.174596 8.522593
          -1.471222 1.231433 7.959650
          -4.124162 -0.057537 0.000000
          -4.428516 2.175140 0.000000
          -1.916994 1.818563 5.774696
          -0.097754 2.184320 0.000000
          -5.347759 3.813502 7.041973
          0.732773 1.205329 0.000000
          -1.479602 1.211335 7.949753
          -3.888143 2.288135 0.000000
          -0.213126 3.571103 0.000000
          -0.658245 1.312944 6.259079
          0.503301 3.779330 5.588827
          -1.137187 0.083499 9.997012
          -2.516135 -0.573450 7.072185
          -1.384879 3.575163 2.702382
          -0.641918 3.813559 0.000000
          -0.144442 1.417943 0.000000
          0.181691 3.475840 0.000000
          -4.385151 2.184137 0.000000
          -3.736300 0.850514 0.000000
          -3.888143 2.288135 0.000000
          -0.731217 3.811720 0.000000
          -0.281050 1.428534 0.000000
          -3.998949 -3.715993 6.426690
          -4.715073 -3.353088 0.000000
          -0.287843 -3.962910 0.000000
          0.219050 -3.731588 0.000000
          -0.336853 -3.855083 0.000000
          -3.941918 -2.378286 0.000000
          0.551272 -4.000000 5.526685
[...]
      <PointData Scalars="density">
        <DataArray type="Float64" Name="density" format="ascii">
          909.386146
          955.827698
          1043.958451
          897.354564
          976.005090
          826.906727
          1016.639273
          949.292989
          944.738385
          802.510344
          956.446271
          971.061108
          996.944847
          986.489456
          977.630647
          995.968804
          887.486487
          805.208588
          1020.386651
          1002.853441
          977.357774
          910.477448
          957.791619
          976.040065
          979.464342
          1073.793856
          997.610576
          817.299532
          1062.826163
          902.887550
          941.314031
          954.902166
          1004.359887
          887.822713
          994.812708
          911.125902
          952.846859
          967.206905
          938.403561
          976.756335
          991.064430
          956.860801
          1046.214389
          949.936772
          1072.092602
          956.505881
          959.299318
          947.180219
          936.387897
          1000.000000
          930.564517
          617.881317
          1007.732361
          619.239739
          969.010288
          1000.000000
          982.583669
          1000.000048
          858.186851
          1006.606141
          824.920917
          1000.000000
          984.297016
          1000.000000
          1000.000000
          1000.000000
          619.238229
          1000.000000
          958.427012
          1000.000000
          950.958559
          884.271413
          1000.000000
          1000.000000
          1000.000000
          986.623745
          1028.390180
          1000.000000
          999.674105
          1000.000000
          500.000000
          1000.000000
          984.983117
          1000.000000
          1003.292693
          1000.211442
          1028.608667
          1045.928565
          824.631411
          999.999227
          816.397751
          1016.198172
          1044.383360
          500.000000
          986.852927
          500.000000
          1023.433198
          998.813747
          500.000000
          944.363200
          920.306242
          831.445619
          985.865871
          1036.537792
          982.641688
          967.956446
          830.354141
          958.753157
          1008.742466
          883.475543
          1000.000000
          1012.839449
          958.511030
          1000.000000
          985.411326
          969.455965
          1002.559643
          1000.000000
          969.900190
          831.321376
          962.271768
          1017.931952
          976.800490
          1005.982057
          985.912783
          831.494426
          953.595611
          998.414268
          1124.551855
          964.989876
          823.141562
          998.723635
          1007.103625
          854.087912
          831.329530
          984.963372
          966.296277
          1029.472346
          999.999172
          812.604075
          999.119740
          970.360828
          974.649604
          831.505498
          816.142060
          1077.041471
          978.079458
          1000.000000
          999.999870
          831.445619
          958.044954
          831.085614
          1000.000000
          1000.000000
          1000.000288
          1000.000000
          1000.000000
          977.255982
          1000.000000
          1000.000000
          1000.000000
          831.199479
          1000.000000
          831.312577
          1000.000000
          1000.000000
          1000.000000
          831.014118
          1008.533884
          957.863265
          500.000000
          1002.832018
          1006.685074
          971.463659
          1037.831063
          831.320875
          1000.000000
          831.329530
          1000.000000
          999.999292
          1000.000000
          831.445411
          999.941239
          1054.261417
          1000.000000
          500.000000
          1000.000000
          999.043734
          999.999256
          999.656373
          999.744761
          831.505498
          940.317271
          831.028914
          999.999253
          998.792719
          1000.000000
          1000.000000
          999.999800
          831.085614
          1000.000000
          1000.000000
          1000.000000
          1000.000000
          1000.317197
          1030.945338
          991.583271
          819.797521
          819.844450
          1000.000000
          999.999812
          934.719402
          1000.000000
          842.161010
          1000.000000
          966.566813
          1000.000000
          831.199689
          814.554510
          999.991819
          944.903718
          968.941978
          815.629207
          831.210848
          1000.214621
          972.473109
          966.236044
          955.656398
          1000.000000
          790.884389
          999.999210
          1000.000000
          942.633705
          977.387759
          977.150353
          905.716416
          970.227091
          1000.000000
          1000.116568
          1000.000000
          999.942392
          831.028914
          999.999330
          1000.000000
          1000.764080
          1007.282414
          830.083526
          1000.000000
          1000.000000
          1000.000000
          1000.000000
          1029.260820
          830.203671
          1000.000000
          1000.000000
          982.399953
          1000.000000
          1000.000000
          1000.000000
          1006.704481
          1000.000000
          1000.000000
          976.572618
          1000.000000
          1000.000000
          970.469474
          957.520157
          986.492265
          1026.361158
          1060.944238
          986.895873
          988.156556
          973.915068
          998.895497
          993.970174
          1001.227188
          850.477085
          998.486811
          999.012628
          978.165069
          831.191831
          1001.044273
          1010.654375
          997.079455
          970.901205
          998.932199
          1000.001221
          983.853265
          831.191831
          1000.000000
          1000.000000
          1000.000000
          999.999196
          966.461538
          1000.000000
          1000.000000
          1000.000000
          1000.000000
          1000.000000
          1000.000000
          1025.352370
          1000.000000
          877.108298
          1000.000000
          1000.000000
          1000.000000
          1027.147785
          1000.000000
          1003.356159
          1000.000000
          951.369057
          500.000000
          1000.000000
          1000.000000
          979.776482
          999.203144
          500.000000
          1051.169510
          919.064938
          998.168397
          963.022677
          928.791262
          1015.124810
          1000.000000
          993.408272
          919.967132
          1001.480124
          1000.000000
          1036.831061
          972.505910
          956.206827
          1000.000000
          1000.000000
          1000.000000
          903.839649
          1000.000000
          968.397931
          1008.259445
          1000.000000
          1000.000000
          1000.000000
          998.507788
          1013.956944
          1000.000000
          1000.000000
          1000.000000
          1000.000000
          1000.000000
          1000.000000
          993.417247
          1000.000000
          990.621198
          1000.000000
          1000.000000
          1000.000000
          901.104421
          1000.000000
          1001.291724
          1000.000000
          961.226132
          946.034507
          1000.000000
          1000.000000
          969.663445
          1001.991722
          500.000000
          1030.793931
          954.243843
          961.070890
          935.689413
          1025.818972
          1002.654887
          1000.000000
          1040.159774
          955.892024
          1000.368272
          1000.000000
          1046.894466
          1001.982722
          958.613519
          1000.000000
          1000.000000
          1000.000000
          1033.873469
          999.932025
          987.544540
          1015.116449
          1000.000000
          1000.000000
          1000.000000
          1000.017095
          1052.397841
          963.522120
          831.382707
          1000.000000
          1000.000000
          1000.000000
          1000.000000
          1060.489798
          831.333630
          1000.000000
          1000.000000
          951.416234
          1000.000000
          1000.000000
          1000.000000
          997.317838
          1000.000000
          1000.000000
          981.535177
          1000.000000
          1000.000000
          922.198890
          500.000000
          981.931320
          804.789610
          975.368003
          930.410212
          998.497143
          1047.399138
          996.544512
          1015.496994
          999.929399
          1013.798950
          1000.000000
          995.484334
          932.239898
          831.361035
          966.236044
          1016.887706
          897.972839
          1011.406879
          995.807277
          1000.000000
          977.755198
          831.361035
          1000.000000
          1000.000000
          1000.000000
          1000.000000
          1011.770089
          1000.000000
          1000.000000
          1000.000026
          831.755184
          1000.000000
          1000.000000
          1000.000000
          1000.000000
          999.377748
          976.314873
          822.956276
          1010.659189
          982.737755
          1000.000000
          999.999985
          963.214759
          1000.000000
          500.000000
          1000.000000
          1009.597905
          1000.000000
          831.419028
          820.362173
          1018.100152
          948.828285
          1018.838724
          910.703948
          830.963187
          999.999930
          988.883479
          996.210606
          1044.541066
          998.742825
          1004.968300
          1000.000000
          1000.000000
          1009.982724
          1035.286217
          954.377450
          948.313426
          993.280995
          1000.000000
          999.952102
          1000.000000
          999.999949
          831.153043
          1000.000000
          1000.000000
          999.149693
          1000.000000
          1000.000000
          830.861517
          885.448470
          831.234600
          1000.000000
          1000.000000
          1000.000067
          1000.000000
          1000.000000
          972.805711
          1000.000000
          1000.000000
          1000.000000
          831.109621
          1000.000000
          831.290516
          1000.000000
          1000.000000
          1000.000000
          831.274432
          818.436899
          975.151177
          1014.874662
          980.791908
          817.403411
          1007.477908
          1096.655701
          831.109623
          1000.000000
          831.162416
          1000.000000
          1000.000000
          1000.000000
          830.025059
          999.999963
          966.236044
          1000.000000
          978.187440
          1000.000000
          999.098607
          1000.000000
          999.661865
          999.999995
          831.371215
          962.672478
          831.153043
          1000.000000
          1001.396684
          1016.848545
          952.593888
          984.789356
          831.147981
          1123.972960
          992.936345
          1013.995641
          999.143603
          831.430621
          833.023479
          968.303954
          980.490333
          1000.000000
          962.990743
          1002.648636
          1000.000000
          954.489981
          1074.821606
          919.907050
          1000.000000
          1069.606839
          831.419026
          822.269166
          963.066014
          966.350260
          948.973411
          1046.273021
          830.365074
          986.027059
          999.674843
          1029.103131
          1020.804659
          976.159812
          1000.000000
          988.062636
          1041.311505
          831.162416
          991.098480
          1002.512096
          1051.579992
          1000.000000
          910.560633
          998.228647
          1008.473781
          1013.719676
          831.371215
          863.354478
          1055.372209
          999.369202
          1000.000000
          929.700081
          617.881318
          970.219379
          619.239092
          888.341334
          1000.000000
          985.694914
          999.999994
          1036.566508
          899.832748
          999.400952
          1000.000000
          1002.523026
          998.112090
          1000.000000
          1000.000000
          619.238876
          1000.000000
          1009.500665
          999.925321
          819.925230
          953.717204
          1003.724878
          1000.000000
          999.568341
          934.641347
          819.839814
          999.841638
          999.974465
          1000.000000
          618.168184
          1000.000000
          978.504872
          1000.178810
          1032.127419
          999.999982
          970.645944
          972.982333
          820.096503
          1000.000000
          979.608136
          999.974439
          952.307140
          620.139185
          935.052129
          617.591942
          1067.440041
          1000.000000
          1038.854276
          1058.976928
          991.038870
          1032.978428
          824.619271
          1029.119554
          970.999160
          1010.669810
          1118.048774
          820.806751
          933.505554
          1023.646679
          1033.454967
          965.095039
          982.932323
          1016.336624
          500.000000
          826.459830
          1007.292170
          1018.134490
          979.802856
          1003.792245
          997.467276
          897.909198
          916.089740
          1004.286690
          862.803346
          962.707868
          993.800531
          1011.766106
          1011.138072
          998.666462
          1004.830352
          1004.199985
          905.657504
          978.563828
          812.597687
          813.744487
          974.446531
          500.000000
          949.009556
          960.061865
          991.959397
          1077.569037
          999.194777
          823.314933
          960.687188
          984.049547
          952.901711
        </DataArray>
        <DataArray type="Float64" Name="pressure" format="ascii">
          -10873.662496
          -5300.676215
          5275.014178
          -12317.452296
          -2879.389152
          -20771.192717
          1996.712795
          -6084.841275
          -6631.393755
          -23698.758767
          -5226.447527
          -3472.667075
          -366.618318
          -1621.265300
          -2684.322348
          -483.743479
          -13501.621520
          -23374.969428
          2446.398108
          342.412867
          -2717.067073
          -10742.706218
          -5065.005704
          -2875.192169
          -2464.278982
          8855.262730
          -286.730836
          -21924.056174
          7539.139585
          -11653.493983
          -7042.316288
          -5411.740095
          523.186486
          -13461.274446
          -622.475049
          -10664.891702
          -5658.376953
          -3935.171409
          -7391.572695
          -2789.239809
          -1072.268429
          -5176.703919
          5545.726729
          -6007.587408
          8651.112294
          -5219.294267
          -4884.081818
          -6338.373664
          -7633.452364
          -0.000001
          -8332.257916
          -45854.241942
          927.883364
          -45691.231348
          -3718.765470
          0.000000
          -2089.959749
          0.005818
          -17017.577905
          792.736874
          -21009.489910
          0.000000
          -1884.358053
          -0.000003
          0.000000
          0.000000
          -45691.412552
          0.000000
          -4988.758530
          -0.000004
          -5884.972938
          -13887.430438
          0.000001
          0.000000
          -0.000004
          -1605.150602
          3406.821646
          -0.000003
          -39.107415
          0.000000
          -60000.000000
          0.000000
          -1802.025986
          -0.000004
          395.123131
          25.373051
          3433.040065
          5511.427776
          -21044.230651
          -0.092720
          -22032.269919
          1943.780680
          5326.003257
          -60000.000000
          -1577.648732
          -60000.000000
          2811.983767
          -142.350339
          -60000.000000
          -6676.415978
          -9563.250904
          -20226.525749
          -1696.095458
          4384.535055
          -2082.997415
          -3845.226512
          -20357.503111
          -4949.621124
          1049.095889
          -13982.934838
          0.000000
          1540.733909
          -4978.676364
          0.000000
          -1750.640879
          -3665.284233
          307.157133
          -0.000000
          -3611.977151
          -20241.434898
          -4527.387853
          2151.834251
          -2783.941214
          717.846853
          -1690.466073
          -20220.668924
          -5568.526697
          -190.287809
          14946.222568
          -4201.214870
          -21223.012609
          -153.163838
          852.434991
          -17509.450518
          -20240.456356
          -1804.395375
          -4044.446779
          3536.681468
          -0.099418
          -22487.511058
          -105.631177
          -3556.700671
          -3042.047508
          -20219.340202
          -22062.952746
          9244.976483
          -2630.465063
          -0.000000
          -0.015622
          -20226.525749
          -5034.605507
          -20269.726299
          0.000001
          0.000000
          0.034513
          -0.000000
          -0.000000
          -2729.282200
          -0.000000
          0.000000
          0.000000
          -20256.062482
          -0.000000
          -20242.490788
          0.000000
          -0.000000
          0.000000
          -20278.305860
          1024.066044
          -5056.408198
          -60000.000000
          339.842186
          802.208868
          -3424.360885
          4539.727599
          -20241.494967
          -0.000000
          -20240.456356
          -0.000000
          -0.084983
          -0.000000
          -20226.550666
          -7.051351
          6511.370011
          -0.000000
          -60000.000000
          -0.000000
          -114.751973
          -0.089287
          -41.235289
          -30.628709
          -20219.340202
          -7161.927524
          -20276.530357
          -0.089672
          -144.873675
          0.000000
          0.000000
          -0.024036
          -20269.726299
          0.000000
          -0.000001
          0.000000
          -0.000000
          38.063600
          3713.440566
          -1010.007432
          -21624.297491
          -21618.665954
          -0.000000
          -0.022557
          -7833.671795
          0.000000
          -18940.678859
          -0.000000
          -4011.982384
          0.000001
          -20256.037324
          -22253.458743
          -0.981733
          -6611.553879
          -3726.962700
          -22124.495148
          -20254.698252
          25.754579
          -3303.226923
          -4051.674676
          -5321.232242
          -0.000000
          -25093.873296