<?xml version="1.0"?>
<VTKFile type="PolyData" version="0.1" byte_order="LittleEndian">
  <PolyData>
    <Piece NumberOfPoints="686" NumberOfVerts="686" NumberOfLines="0" NumberOfStrips="0" NumberOfPolys="0">
      <Points>
        <DataArray type="Float64" NumberOfComponents="3" format="ascii">
          -0.796868 -0.116346 2.646373
          -0.439068 0.045200 2.640041
          -0.136627 -0.000082 3.056414
          -0.417720 -0.746557 2.664549
          -0.354613 -0.696842 2.545261
          -0.355992 0.052179 2.748362
          -0.072154 0.103637 3.173499
          -0.816192 -0.093560 2.695746
          -0.276357 -0.044360 2.600172
          -1.569205 -0.068053 2.693799
          -0.455995 -0.072656 2.593975
          -0.113961 -0.027187 2.728192
          -1.334639 -0.096132 2.658032
          -1.664435 -0.029441 3.984731
          -1.015211 -0.089825 2.679657
          -0.003389 -0.015987 2.155117
          0.304649 -0.124475 2.953385
          -1.630479 -0.045507 2.827314
          -0.268395 -0.079088 3.406747
          -0.627227 -0.067017 2.668980
          -1.677049 -0.066844 3.967663
          -1.296713 -0.093896 2.638646
          0.061768 0.025230 2.057807
          -1.271832 -0.098836 2.669272
          0.120497 -0.112517 2.270976
          -0.937536 -0.095402 2.666676
          -0.305994 -0.099554 2.533617
          -1.597942 -0.064575 2.876984
          -1.329347 -0.081157 2.646835
          -0.291262 -0.312670 2.628343
          -0.278957 -0.185314 3.395057
          -1.219408 -0.079879 2.631619
          0.042853 0.114033 3.091837
          -0.373616 0.128569 2.906073
          -1.674788 -0.049559 3.956683
          -0.621975 -0.051471 2.598756
          -0.140304 -0.089031 2.801468
          -1.599647 0.054813 2.866501
          -0.731536 -0.090683 2.696116
          -0.040843 0.242971 2.313070
          -1.481909 -0.010751 2.793483
          -1.661638 -0.068078 3.990762
          -0.773088 -0.066117 2.616486
          -0.281527 0.467695 2.893263
          -0.397891 0.061375 2.992722
          -0.336068 -0.242007 2.340548
          -0.107778 0.310135 2.678580
          -0.138931 0.397739 2.865928
          -0.309228 0.078768 3.031911
          -0.230656 -2.496078 0.438955
          -0.477674 -0.609674 2.553526
          -5.445572 -2.794448 2.650519
          -0.189842 -0.165083 3.412897
          -5.416020 -2.808685 2.675040
          0.061048 0.092442 3.213055
          0.072769 -1.234021 3.423137
          -0.407959 0.556063 2.855130
          -4.332928 -2.232925 0.739264
          -0.346222 -0.665541 2.679453
          0.314983 -0.174929 2.810840
          0.031939 -0.008968 2.879232
          -3.781477 -2.285869 4.871088
          -1.540958 0.002585 2.936168
          -5.458549 -0.081066 0.013349
          -0.749404 -1.703316 2.304185
          -2.585905 -0.031248 2.648360
          -5.371738 -2.873923 2.614212
          -2.587559 -0.058392 2.615212
          -0.151950 -0.167270 2.798169
          -5.417486 -0.068590 7.303233
          -0.704434 -0.000210 1.938491
          -0.002602 -0.145384 2.069703
          -5.413167 -0.050000 0.023315
          -2.568866 -0.050070 2.653150
          -5.378871 -0.050000 7.334904
          -0.437846 -0.024682 2.741141
          0.114107 -0.124011 3.368701
          -5.458549 -0.018934 0.013349
          -0.123203 1.102407 2.001687
          -2.585899 -0.068716 2.648441
          -5.407461 3.029396 2.635071
          -2.587593 -0.041575 2.615231
          -0.094697 0.334814 2.637217
          -5.417486 -0.031410 7.303233
          0.241572 0.098718 2.624421
          -4.332233 2.134265 0.738866
          -0.174630 -0.239502 2.550260
          -0.174354 0.794465 3.110133
          -0.080564 -0.066809 2.982639
          -3.792407 2.280465 5.010602
          -1.543197 0.044045 2.925459
          0.005619 2.367182 0.218049
          -0.120429 -0.167498 3.033401
          -5.415464 3.062175 2.638932
          0.353663 -0.134657 3.575931
          -5.410405 3.035456 2.665745
          0.100898 0.452101 2.735148
          -0.348858 1.184419 3.286124
          0.066236 -0.176931 2.785460
          0.030567 0.414011 2.791106
          0.141305 -0.125733 1.985674
          -3.633824 -1.506305 2.643655
          -1.517271 -0.053932 2.668648
          -0.021272 -0.174119 2.891976
          -0.142985 -0.184513 3.396455
          -0.006385 -0.103484 2.085058
          -4.279860 -3.062655 0.006144
          -0.341273 -0.247509 2.309318
          -0.634110 -0.053238 2.613083
          0.359310 -0.116538 3.418371
          -3.761036 -2.403862 5.004415
          -0.099575 -0.312223 2.359716
          -0.242082 0.108075 2.922692
          0.802784 -1.557553 2.478799
          -0.156885 0.162370 2.512280
          -0.042904 -0.145078 3.298133
          0.150565 -0.151527 3.120165
          -0.344854 -1.239724 3.795784
          -0.473165 -0.740370 2.624963
          -3.422098 -0.051935 0.000000
          -1.048184 -0.124352 2.662950
          -0.173145 0.189783 2.974019
          -0.751144 -0.007293 1.890430
          -0.296830 -0.408139 2.588262
          -1.673377 -0.035312 3.998539
          -3.626114 -0.050400 12.966460
          -0.510414 -0.066437 2.596085
          -0.209555 1.137804 2.166317
          -0.500218 -0.675215 2.559818
          -0.295329 0.008108 3.284540
          0.113354 -0.062301 3.263597
          -0.341861 1.178636 3.375029
          -0.408064 0.539330 2.891168
          0.035497 -0.206511 2.058786
          -4.275506 2.961144 0.000000
          0.057663 -0.171696 3.069971
          -0.340122 0.540830 2.829742
          -0.381365 0.036261 2.829113
          -3.683317 2.189621 4.922042
          -0.193654 0.368721 2.817078
          0.404519 0.234176 2.884160
          0.060828 -0.174334 3.650570
          0.134973 -0.045862 2.116470
          -3.626268 1.021849 2.646300
          -1.572077 -0.062921 2.694086
          -0.400973 0.505670 2.878676
          -0.177013 0.395849 2.885993
          -0.740292 -1.727256 2.398565
          -4.331096 -2.254370 0.738232
          -3.633678 -1.502088 2.646040
          -0.129564 -0.336156 2.610976
          -3.626062 -1.501910 2.643537
          -3.801889 -2.307799 4.862576
          0.190985 -1.320921 3.577406
          -4.369626 -2.247608 0.735772
          0.413685 -2.424572 0.034691
          -0.355547 -3.702720 0.000000
          -0.358430 -0.138730 2.217025
          -0.605530 -3.674732 6.221791
          0.272044 -1.399124 3.536018
          -3.836217 -2.374070 4.902946
          -3.413471 -0.048931 0.000000
          -0.307147 -3.622613 0.000000
          -4.267721 -3.050903 0.006145
          -0.152770 -4.000000 2.572452
          -3.692697 -2.333287 4.998167
          -0.693476 -3.625853 6.216736
          -3.638171 -0.048247 12.978825
          -0.698443 -0.036822 1.891055
          -0.283854 -0.216187 3.127001
          -0.094838 0.031930 2.866292
          -0.325033 -0.044535 3.208168
          0.118957 -0.116333 6.966942
          -0.218475 -0.228716 3.108208
          0.202370 -0.128681 3.452745
          -3.421810 -0.048305 0.000000
          -0.305830 3.533265 0.000000
          -4.270481 2.964899 0.000000
          0.176200 3.941563 2.670800
          -3.824849 2.268872 4.989112
          -0.693471 3.525848 6.216725
          -3.631330 -0.051602 12.974895
          -4.369664 2.149366 0.736474
          0.052485 2.354817 0.155717
          -0.267684 3.464698 0.000000
          0.257533 -0.185531 2.378359
          -0.605521 3.574727 6.221809
          -0.298242 1.270249 3.410112
          -3.789418 2.181930 4.886239
          -0.170876 1.152104 2.184446
          -4.330337 2.151188 0.737131
          -3.632589 1.022370 2.645478
          -0.165170 0.774680 3.124247
          -3.632714 1.020194 2.640016
          -3.778077 2.334460 4.918676
          -0.347631 1.259354 3.395436
          0.774853 -1.457632 2.447973
          0.346121 -3.637959 0.000000
          -4.365960 -2.249506 0.759665
          -3.626108 -1.497919 2.643725
          -3.801779 -2.409260 4.978681
          -0.669756 -3.643879 6.188642
          0.109598 -1.287275 3.579558
          -0.283195 -3.656836 0.000000
          0.075797 -0.074671 2.165219
          -0.313771 -0.443946 2.658306
          -0.362909 0.072076 2.733754
          -0.183800 -0.012932 2.969575
          0.077352 -0.183419 3.653316
          -0.602244 -3.672410 6.251010
          -4.339653 -2.246777 0.770946
          -0.226408 0.022133 2.607417
          -0.182242 -2.421376 0.357575
          -0.157968 -0.218905 2.749874
          0.056469 -1.300979 3.577068
          -1.512693 -0.068071 2.679704
          -3.681737 -2.342884 4.880314
          -3.419787 -0.050829 0.000000
          -0.728946 -0.053343 1.937204
          -0.788900 0.028717 1.936655
          0.271482 0.146205 2.619229
          -0.303587 -0.339571 2.646178
          -0.480122 0.040351 2.721878
          -3.625073 -0.049751 12.971957
          -4.341082 2.150748 0.770790
          -0.163425 0.087311 2.469740
          -0.026623 2.213605 0.381478
          -0.188962 0.234008 2.862734
          0.695564 1.165298 4.055829
          -1.542121 0.038909 2.930031
          -3.701275 2.198227 4.868523
          -0.205965 3.566619 0.000000
          -0.016368 0.028786 2.628392
          -0.134979 0.409516 2.824472
          -0.038897 0.158474 2.338200
          -0.271142 -0.083125 3.081800
          0.039824 -0.109016 3.532884
          -0.602244 3.572411 6.251004
          -0.162845 1.220969 2.170818
          0.175481 3.473490 0.000000
          -4.365944 2.145616 0.760621
          -3.628098 1.013424 2.645205
          -3.685930 2.209515 4.968822
          -0.669772 3.543874 6.188649
          -0.258241 1.297262 3.267855
          -0.357690 -0.113118 2.553535
          -4.276510 -3.072742 0.003184
          -0.313147 -3.940725 2.679071
          0.217400 -3.849922 2.641631
          -0.307090 -3.916573 2.641932
          -3.738417 -2.296329 4.999486
          0.320034 -0.143039 2.936209
[...]
      <PointData Scalars="density">
        <DataArray type="Float64" Name="density" format="ascii">
          995.115710
          1006.353414
          980.918051
          994.103227
          994.904289
          1021.733312
          999.724044
          1109.452592
          1102.963816
          999.323935
          1023.998171
          1733.016383
          1002.162905
          1001.767165
          1221.241987
          717.675723
          1041.247505
          998.143313
          1020.229978
          1005.306423
          1001.708961
          1014.931860
          827.415615
          1019.082479
          985.023926
          1223.670301
          1026.321830
          1003.136140
          1005.016543
          1022.227710
          983.626900
          1012.064793
          1007.177582
          1001.797147
          998.548411
          976.484999
          1245.324723
          997.764234
          1021.295602
          920.631824
          1006.755229
          999.265715
          985.003448
          984.659099
          1002.880220
          1003.786790
          1020.548486
          1035.261770
          1021.892899
          1000.156740
          1001.183056
          585.108539
          1013.666370
          559.114638
          1014.247294
          1000.419272
          988.557508
          1001.029393
          984.623427
          985.272141
          992.591165
          999.523859
          1010.631788
          585.900803
          1007.657862
          1000.595638
          551.357316
          1000.264150
          1129.473576
          591.106604
          1291.066702
          901.802287
          548.281770
          1001.013648
          573.360775
          1006.245692
          988.779316
          585.900802
          1006.024487
          1000.570380
          555.482083
          1000.261197
          964.809323
          591.106604
          1059.984675
          1001.212602
          1091.658652
          994.192079
          1058.969228
          1004.821956
          1002.138055
          1002.168809
          981.308949
          564.205454
          1018.234887
          539.915497
          988.736677
          997.971094
          1046.689416
          977.167118
          1075.888207
          829.546894
          985.377520
          999.651139
          1000.571233
          889.158280
          830.259673
          1004.832687
          1017.927503
          987.376729
          1003.138089
          959.717806
          1009.694081
          999.281156
          1022.508458
          1001.330611
          963.944903
          992.283528
          997.944204
          830.126427
          1096.346429
          1015.776633
          1287.805158
          1001.172393
          997.884140
          824.210654
          989.904524
          1000.561086
          1007.328016
          1037.135038
          1022.283197
          996.897219
          988.647663
          920.922757
          830.672559
          995.895230
          1013.249170
          1032.335620
          1006.346708
          996.071849
          1027.277016
          1000.611249
          1261.727598
          829.376473
          999.567728
          998.065224
          1008.770878
          1004.700939
          1002.147660
          830.136837
          1044.966403
          829.949779
          992.194405
          1004.243013
          995.068825
          995.451856
          903.261728
          1029.582940
          1001.097428
          1000.285167
          995.262051
          831.042901
          1028.491794
          831.067335
          1018.317992
          994.321061
          999.895765
          829.156492
          1233.823137
          987.663693
          1839.742294
          1026.963439
          1008.790660
          998.976851
          958.565101
          831.199721
          948.509581
          828.642701
          1005.692339
          992.790889
          999.893070
          823.766024
          995.369392
          993.333316
          947.464342
          1025.060226
          1001.103152
          999.058946
          994.182780
          1001.310632
          1001.990923
          827.529220
          999.239004
          828.385304
          1001.298731
          987.768037
          999.464126
          978.769911
          1002.101180
          829.641685
          1004.010688
          998.149301
          997.334661
          932.036269
          789.017863
          1008.872595
          990.870632
          958.661707
          991.820944
          998.901100
          998.064497
          1308.595886
          995.037095
          1134.502321
          1002.208183
          1014.716409
          1005.308995
          828.670369
          1242.628448
          1114.862880
          978.560169
          1044.861131
          993.274432
          828.550872
          998.430069
          986.714286
          998.528855
          956.794803
          1003.220677
          1000.217156
          998.575437
          968.504998
          1671.721679
          1001.902681
          1006.932186
          986.641306
          1007.562051
          998.908060
          1002.031406
          992.203718
          1001.928604
          829.849056
          1001.857831
          998.146324
          998.265506
          973.804754
          828.479061
          947.352298
          978.782838
          1012.481639
          1002.870301
          982.380387
          830.214010
          996.773524
          995.659840
          988.258050
          994.226648
          1011.057472
          990.558525
          1090.333938
          991.135490
          997.583013
          997.386868
          1003.939122
          993.815080
          996.914206
          1643.656386
          1019.254574
          1224.528130
          1137.329387
          1036.636760
          1011.712976
          990.658300
          1048.078161
          990.218779
          1002.532656
          957.450489
          1006.866672
          988.571158
          1000.767343
          829.487023
          1002.335923
          1000.641703
          1028.765217
          999.255492
          1000.142346
          1000.289925
          986.001238
          827.539287
          982.689948
          962.187330
          975.349241
          996.091060
          984.802202
          1001.414274
          990.058338
          1022.347054
          1008.668591
          1056.791413
          994.945434
          955.547715
          1002.311479
          998.779521
          978.792812
          963.375991
          1000.058121
          974.306917
          990.221483
          1126.986836
          1009.179020
          1106.313868
          1005.652659
          1010.727692
          1001.782727
          1008.554791
          971.007703
          1628.286423
          1001.195382
          1199.997649
          1001.826006
          1009.970534
          994.763598
          944.105733
          1004.042444
          1002.658786
          1007.432569
          1009.426334
          1001.785208
          995.597177
          1023.270535
          983.608283
          949.544528
          1052.186168
          1000.061231
          880.621373
          1002.661107
          982.587446
          1017.604213
          1015.237931
          1014.362930
          1003.155509
          997.075680
          992.201765
          999.442990
          995.851073
          991.949231
          1033.370866
          1021.445130
          999.498404
          1004.732376
          1005.562583
          948.789368
          904.887802
          993.841142
          1000.051396
          957.790126
          999.971535
          1005.312123
          932.982696
          929.922558
          1120.941081
          991.182293
          1001.778807
          990.596119
          1171.102535
          1801.837770
          1192.058463
          1199.281072
          995.729472
          1014.745058
          993.113917
          1007.468867
          1003.035430
          984.176406
          1423.863209
          1003.775898
          1001.781640
          1015.757299
          1003.801546
          911.035868
          951.069145
          1021.982770
          1000.055230
          952.061141
          997.543393
          996.216384
          1002.871294
          998.301893
          1028.681512
          943.011695
          997.976620
          965.787859
          995.966699
          818.799216
          1001.101487
          987.377157
          1018.800763
          995.928418
          969.362322
          823.138154
          1002.515853
          997.416924
          971.815043
          1003.376003
          1005.033583
          1008.971367
          977.802248
          1010.182393
          994.605903
          1002.770649
          998.798256
          994.965589
          990.805589
          1879.550366
          1014.120036
          1095.451701
          975.869095
          1048.574099
          1009.629201
          995.230001
          984.716422
          989.456374
          1005.198116
          995.747157
          999.064985
          992.772741
          989.949365
          828.848422
          1001.991967
          1013.569201
          991.450022
          1004.309611
          1001.766400
          999.260154
          983.664213
          823.557425
          987.678537
          993.855749
          1069.409708
          996.371603
          1013.266460
          995.233501
          997.494604
          1001.945244
          819.272200
          1009.567941
          998.152337
          993.786740
          981.039041
          972.556494
          955.477261
          1019.631913
          950.560521
          1015.606042
          998.879904
          998.414413
          1127.790596
          992.427983
          1020.270894
          999.597239
          1006.820722
          1007.965062
          831.333030
          1255.020075
          1047.711031
          996.191418
          1023.703553
          924.807448
          770.259807
          998.420914
          988.026327
          1002.744921
          1011.598003
          1000.100111
          995.342006
          989.720199
          971.295397
          1045.695911
          1055.280529
          946.712893
          1143.038314
          988.618809
          998.890023
          995.703022
          1003.147058
          1001.938452
          828.373572
          990.178409
          998.149264
          1003.576473
          997.689227
          1002.009127
          821.158380
          1031.820887
          800.582725
          1001.593523
          1002.794808
          995.354550
          1005.619559
          981.402060
          987.785775
          1001.082432
          999.142259
          1007.341675
          831.330213
          982.686441
          826.377336
          970.273656
          997.750617
          999.897735
          809.754686
          1091.165420
          990.701561
          1903.226504
          1036.333272
          996.089647
          994.807352
          991.305972
          831.349593
          946.181036
          829.758130
          926.060361
          997.271476
          999.894916
          812.802363
          995.361864
          998.020266
          947.417353
          1077.813436
          1001.090222
          993.535395
          1009.380020
          1006.508490
          1002.001169
          828.596032
          989.618910
          829.794469
          996.704935
          1001.071212
          934.568833
          996.874724
          1087.994016
          811.514571
          1015.488409
          1008.908449
          1036.401791
          875.889272
          827.464932
          1014.867952
          981.590662
          1023.740537
          1014.926113
          1201.463043
          1010.231448
          1004.828865
          950.812306
          993.537213
          1003.053240
          994.554637
          965.297666
          831.598232
          1057.016029
          1666.614957
          1245.221204
          969.631583
          1001.421867
          811.266109
          1014.442084
          995.406474
          1013.030057
          993.098831
          996.877348
          1000.439371
          992.614616
          780.248230
          828.968858
          973.677365
          994.105780
          983.156942
          1008.053433
          1029.078854
          1071.393057
          1558.265781
          816.985957
          829.938353
          1012.903169
          996.315403
          966.948160
          997.899889
          1030.521820
          573.968897
          999.273822
          597.370528
          1275.753806
          1002.311991
          1008.964301
          1001.202217
          997.410203
          1003.547128
          1006.014096
          989.499332
          1012.998004
          613.924566
          999.420383
          997.690514
          600.569657
          1000.134889
          1203.860616
          591.113315
          1182.785143
          1029.317814
          603.634789
          998.783023
          573.483152
          966.705072
          998.436382
          613.924566
          1010.843181
          996.913706
          612.834368
          1000.413954
          1016.552543
          591.113315
          984.767348
          1001.206940
          969.592211
          992.191673
          1007.587457
          995.693271
          1002.594373
          1016.042326
          1036.060261
          613.954624
          992.525581
          607.236413
          995.927527
          1003.850171
          1010.692188
          959.399782
          1019.353045
          983.508466
          1005.803606
          991.635532
          1012.927102
          1055.457649
          977.115228
          987.377443
          1036.459510
          908.508694
          952.025231
          999.945097
          1025.747237
          1008.750371
          1028.855680
          990.654366
          1009.787976
          996.160683
          997.857834
          996.115440
          896.541734
          998.313024
          984.086171
          1017.630021
          1113.096821
          999.832979
          976.547298
          1122.640266
          1039.704884
          988.127201
          1021.043291
          1027.882899
          999.613264
          988.136242
          1140.052093
          988.384242
          1016.748343
          1137.213331
          997.583295
          1001.299681
          937.038587
          1003.538066
          750.126629
          1008.915155
          1020.866239
          1039.692150
          965.540577
        </DataArray>
        <DataArray type="Float64" Name="pressure" format="ascii">
          -586.114801
          762.409649
          -2289.833892
          -707.612778
          -611.485351
          2607.997467
          -33.114667
          13134.311032
          12355.657899
          -81.127832
          2879.780496
          87961.966017
          259.548590
          212.059854
          26549.038499
          -33878.913251
          4949.700598
          -222.802481
          2427.597414
          636.770813
          205.075285
          1791.823243
          -20710.126241
          2289.897421
          -1797.128852
          26840.436109
          3158.619618
          376.336807
          601.985157
          2667.325228
          -1964.772008
          1447.775201
          861.309841
          215.657687
          -174.190628
          -2821.800093
          29438.966729
          -268.291868
          2555.472229
          -9524.181137
          810.627529
          -88.114202
          -1799.586246
          -1840.908154
          345.626344
          454.414795
          2465.818286
          4231.412429
          2627.147913
          18.808830
          141.966708
          -49786.975345
          1639.964397
          -52906.243390
          1709.675237
          50.312640
          -1373.098995
          123.527104
          -1845.188813
          -1767.343082
          -889.060183
          -57.136884
          1275.814509
          -49691.903637
          918.943399
          71.476605
          -53837.122081
          31.697963
          15536.829080
          -49067.207569
          34928.004208
          -11783.725587
          -54206.187637
          121.637779
          -51196.707019
          749.483007
          -1346.482027
          -49691.903739
          722.938389
          68.445607
          -53342.150026
          31.343616
          -4222.881283
          -49067.207569
          7198.161054
          145.512292
          10999.038281
          -696.950578
          7076.307371
          578.634775
          256.566605
          260.257092
          -2242.926170
          -52295.345463
          2188.186442
          -55210.140369
          -1351.598797
          -243.468716
          5602.729942
          -2739.945824
          9106.584784
          -20454.372748
          -1754.697583
          -41.863294
          68.547989
          -13301.006405
          -20368.839181
          579.922495
          2151.300418
          -1514.792464
          376.570688
          -4833.863222
          1163.289672
          -86.261252
          2701.015014
          159.673315
          -4326.611673
          -925.976630
          -246.695553
          -20384.828720
          11561.571529
          1893.196019
          34536.618910
          140.687115
          -253.903169
          -21094.721561
          -1211.457082
          67.330359
          879.361950
          4456.204547
          2673.983597
          -372.333670
          -1362.280438
          -9489.269125
          -20319.292940
          -492.572425
          1589.900380
          3880.274459
          761.604977
          -471.378122
          3273.241891
          73.349914
          31407.311808
          -20474.823298
          -51.872651
          -232.173106
          1052.505375
          564.112654
          257.719140
          -20383.579536
          5395.968304
          -20406.026466
          -936.671352
          509.161582
          -591.741054
          -545.777294
          -11608.592691
          3549.952816
          131.691360
          34.220020
          -568.553900
          -20274.851864
          3419.015286
          -20271.919835
          2198.159100
          -681.472630
          -12.508258
          -20501.220956
          28058.776390
          -1480.356793
          100769.075336
          3235.612652
          1054.879162
          -122.777854
          -4972.187903
          -20256.033432
          -6178.850229
          -20562.875873
          683.080664
          -865.093330
          -12.831585
          -21148.077164
          -555.673019
          -800.002101
          -6304.278978
          3007.227061
          132.378291
          -112.926487
          -698.066445
          157.275868
          238.910798
          -20696.493620
          -91.319554
          -20593.763515
          155.847678
          -1467.835516
          -64.304870
          -2547.610714
          252.141590
          -20442.997757
          481.282612
          -222.083938
          -319.840703
          -8155.647711
          -25317.856496
          1064.711340
          -1095.524167
          -4960.595121
          -981.486747
          -131.868043
          -232.260402
          37031.506334
          -595.548636
          16140.278568
          264.981997
          1765.969106
          637.079406
          -20559.555674
          29115.413763
          13783.545611
          -2572.779702
          5383.335721
          -807.068181
          -20573.895307
          -188.391768
          -1594.285641
          -176.537451
          -5184.623661