<?xml version="1.0"?>
<VTKFile type="PolyData" version="0.1" byte_order="LittleEndian">
  <PolyData>
    <Piece NumberOfPoints="396" NumberOfVerts="396" NumberOfLines="0" NumberOfStrips="0" NumberOfPolys="0">
      <Points>
        <DataArray type="Float64" NumberOfComponents="3" format="ascii">
          0.428613 -0.260979 32.304760
          -0.406526 -0.253103 32.424844
          0.715442 0.175863 31.793950
          0.942607 0.059690 32.167864
          -0.404290 -0.235806 31.853481
          0.464159 0.132142 32.470270
          0.104313 0.306779 32.051974
          -0.818827 -0.120462 32.479278
          0.007475 -0.466626 32.496383
          0.126592 -0.243719 31.828909
          -0.093455 -0.498718 32.123332
          0.052662 0.220401 31.549487
          0.467603 0.212566 32.410699
          0.015556 0.617829 32.375702
          0.080255 -0.168185 31.946365
          -0.136154 0.442980 32.191672
          -0.602646 0.124953 31.840147
          0.844425 0.260405 32.116353
          0.467524 -0.212565 32.410673
          0.015567 -0.617792 32.375689
          0.080191 0.168199 31.946545
          -0.136123 -0.442963 32.191578
          -0.602650 -0.124973 31.840165
          0.844415 -0.260383 32.116394
          0.104291 -0.306791 32.052142
          -0.818813 0.120438 32.479256
          0.007422 0.466632 32.496396
          0.126614 0.243714 31.828904
          -0.093517 0.498754 32.123276
          0.052350 -0.219156 31.548712
          0.428525 0.260986 32.304806
          -0.406559 0.253076 32.424847
          0.715391 -0.176001 31.794020
          0.942634 -0.059614 32.167749
          -0.404334 0.235802 31.853488
          0.464182 -0.132075 32.470299
          0.789857 0.290729 32.063838
          -0.393728 -0.265457 32.423742
          -0.543755 -0.009106 31.523905
          -0.847470 -0.089686 32.516245
          -0.995576 -0.271219 32.125451
          -0.243971 -0.060884 32.471946
          -1.009218 -0.143928 32.097005
          -0.375273 0.285964 32.419604
          0.480056 -0.145731 32.453281
          0.980662 0.204311 32.019083
          0.161925 0.450636 31.714928
          -0.652835 -0.242519 32.016897
          -0.901533 0.016797 32.396298
          0.782227 -0.063920 32.458480
          -0.570608 0.176401 31.985289
          -0.616849 -0.187846 32.014175
          0.726311 -0.019535 31.834256
          -0.727247 0.176647 32.445886
          -0.901532 -0.016832 32.396312
          0.782209 0.063903 32.458571
          -0.570295 -0.176269 31.985065
          -0.616249 0.187660 32.013670
          0.726313 0.019519 31.834211
          -0.727227 -0.176663 32.445798
          -1.009250 0.143745 32.097026
          -0.375266 -0.285999 32.419618
          0.480137 0.145687 32.453373
          0.980654 -0.204331 32.019113
          0.161755 -0.450688 31.714891
          -0.652781 0.242523 32.016916
          0.789651 -0.290722 32.063809
          -0.393706 0.265438 32.423710
          -0.543775 0.009103 31.523881
          -0.847425 0.089725 32.516228
          -0.995661 0.271186 32.125438
          -0.243967 0.060865 32.471940
          4.817321 2.365127 40.676008
          -0.293864 -0.185790 32.396885
          0.746778 -0.264553 32.014475
          0.530758 0.208430 31.945083
          -0.561014 -0.061345 31.593071
          4.830068 2.392499 23.466262
          -0.213401 -0.097362 31.896414
          -0.794672 0.345058 32.049308
          0.108682 0.222003 31.775606
          -0.502482 0.189047 32.438366
          -0.428149 0.214463 31.887185
          -1.047619 0.176322 32.068103
          0.704501 -0.254599 32.071438
          0.273000 -0.002681 32.083309
          0.251752 -0.201416 32.321110
          0.299312 0.167020 32.322458
          0.619542 -0.052633 31.637370
          0.591823 0.116353 31.566145
          0.704499 0.254606 32.071405
          0.273478 0.002706 32.083537
          0.251813 0.201365 32.321053
          0.299279 -0.166947 32.322506
          0.619542 0.052617 31.637375
          0.591817 -0.116375 31.566163
          -0.213369 0.097460 31.896414
          -0.794505 -0.345054 32.049223
          0.108627 -0.222040 31.775653
          -0.502442 -0.189047 32.438363
          -0.428127 -0.214411 31.887197
          -1.047548 -0.176348 32.068091
          4.857916 -2.366360 40.659396
          -0.293873 0.185917 32.396829
          0.746782 0.264573 32.014487
          0.530731 -0.208424 31.945057
          -0.561034 0.061363 31.593074
          4.815465 -2.376952 23.469247
          -0.242051 -0.368965 31.894903
          -0.780877 -0.140886 32.551271
          -0.199042 -0.049407 32.121519
          -0.552930 0.047423 31.519699
          -1.015786 -0.245078 32.143885
          -0.229824 -0.134681 32.135355
          -0.942412 0.107065 32.047535
          -1.045574 -0.035598 32.099110
          -0.195184 -0.119448 31.782945
          0.038726 -0.503118 31.969406
          -0.147600 0.163470 31.805977
          -0.690163 -0.213002 31.851847
          -0.712455 -0.108496 32.456236
          -0.453595 -0.173090 32.443597
          -0.654295 0.104808 31.700482
          -0.615049 -0.190592 31.841724
          -0.804002 -0.086497 32.477898
          -0.883116 0.322896 32.098292
          -0.712458 0.108500 32.456311
          -0.453635 0.173109 32.443587
          -0.654284 -0.104851 31.700485
          -0.615033 0.190630 31.841795
          -0.803908 0.086492 32.477965
          -0.883159 -0.322918 32.098226
          -0.942520 -0.107161 32.047524
          -1.045597 0.035788 32.098984
          -0.195196 0.119501 31.782965
          0.038614 0.503113 31.969446
          -0.147601 -0.163512 31.806052
          -0.690161 0.213085 31.851915
          -0.241934 0.369302 31.895428
          -0.780527 0.140883 32.551352
          -0.199044 0.049418 32.121503
          -0.552922 -0.047421 31.519697
          -1.015816 0.245123 32.143851
          -0.229854 0.134565 32.135424
          4.851095 2.372282 40.670400
          -0.235440 0.215610 31.877521
          0.011597 -0.460263 31.680981
          0.067583 -0.478262 32.245737
          0.119935 0.386389 31.781487
          4.838444 2.341942 23.496760
          0.136159 0.392788 32.212129
          1.003491 -0.234353 32.133109
          -0.054780 -0.051246 31.483768
          -0.036727 -0.251140 32.185071
          0.922067 0.307894 32.113804
          0.288779 0.203523 31.957090
          0.021220 -0.571040 31.744072
          -0.121819 -0.124909 32.464754
          0.024811 0.442456 32.435456
          -0.101576 0.438811 31.656706
          -0.088784 0.054903 32.476444
          -0.081445 -0.520951 32.421003
          0.021311 0.570871 31.743928
          -0.121032 0.124814 32.464981
          0.024824 -0.442506 32.435478
          -0.101457 -0.438827 31.656682
          -0.088710 -0.054595 32.476462
          -0.081475 0.520975 32.420990
          0.136262 -0.392723 32.212062
          1.003492 0.234303 32.133204
          -0.054756 0.051186 31.483781
          -0.036749 0.251160 32.185089
          0.922034 -0.307888 32.113742
          0.288747 -0.203543 31.957124
          4.810500 -2.371049 40.687012
          -0.235416 -0.215599 31.877664
          0.011732 0.460114 31.680805
          0.067581 0.478290 32.245736
          0.119881 -0.386293 31.781365
          4.853047 -2.357489 23.493774
          -0.000000 2.864995 39.326832
          -0.000047 0.159546 31.450365
          -0.000050 0.028437 32.093848
          0.000030 -0.120261 31.827654
          -0.000056 0.047892 31.471604
          0.000000 2.864994 24.827891
          -0.000000 -1.579277 29.914339
          0.000032 -0.209583 31.554462
          0.000009 -0.495590 32.213238
          0.000051 -0.141819 31.420964
          -0.000058 -0.154950 32.437403
          -0.000000 -0.039719 34.271253
          -0.000002 0.519545 31.868472
          0.000018 -0.419880 31.635886
          0.000020 -0.123754 32.474495
          -0.000013 0.496003 31.967801
          0.000028 -0.359532 32.471197
          0.000115 0.477349 32.498752
          -0.000004 -0.519551 31.868446
          -0.000052 0.419679 31.635905
          -0.000021 0.123782 32.474524
          0.000028 -0.495970 31.967742
          -0.000073 0.359492 32.471222
          -0.000053 -0.477341 32.498740
          0.000000 1.579277 29.914338
          -0.000044 0.208386 31.553637
          0.000023 0.495585 32.213225
          -0.000054 0.141707 31.420770
          0.000059 0.154968 32.437441
          0.000000 0.039719 34.271253
          -0.000000 -2.864995 39.326832
          0.000041 -0.159831 31.450415
          0.000015 -0.028449 32.093848
          -0.000008 0.120267 31.827610
          0.000070 -0.047812 31.471477
          -0.000000 -2.864994 24.827891
          -4.838430 2.375644 40.680602
          0.235511 0.215638 31.877650
          -0.011594 -0.460262 31.680993
          -0.067557 -0.478270 32.245764
          -0.119981 0.386384 31.781476
          -4.831557 2.347247 23.491323
          -0.136244 0.392792 32.212109
          -1.003487 -0.234355 32.133112
          0.054781 -0.051273 31.483761
          0.036763 -0.251140 32.185051
          -0.922072 0.307895 32.113795
          -0.288781 0.203515 31.957098
          -0.021233 -0.571029 31.744065
          0.121488 -0.124842 32.464861
          -0.024806 0.442510 32.435489
          0.101647 0.438827 31.656740
          0.088739 0.054595 32.476490
          0.081475 -0.520954 32.420987
          -0.021346 0.570874 31.743942
          0.121351 0.124879 32.464874
          -0.024792 -0.442493 32.435490
          0.101465 -0.438829 31.656694
          0.088766 -0.054931 32.476431
          0.081470 0.520944 32.420976
          -0.136254 -0.392724 32.212033
          -1.003498 0.234300 32.133200
          0.054748 0.051176 31.483782
          0.036768 0.251161 32.185059
          -0.922028 -0.307887 32.113750
          -0.288794 -0.203547 31.957133
          -4.826514 -2.431950 40.761402
          0.235486 -0.215651 31.877525
          -0.011744 0.460125 31.680841
          -0.067581 0.478320 32.245737
          -0.119876 -0.386293 31.781347
          -4.821570 -2.356602 23.482540
          0.241868 -0.369505 31.894992
          0.780810 -0.140892 32.551278
          0.199032 -0.049451 32.121539
          0.552931 0.047424 31.519704
          1.015763 -0.245082 32.143921
          0.229816 -0.134627 32.135423
          0.942409 0.107081 32.047531
          1.045580 -0.035634 32.099088
          0.195193 -0.119473 31.782964
          -0.038692 -0.503113 31.969424
          0.147552 0.163475 31.805997
          0.690161 -0.213009 31.851860
          0.712475 -0.108477 32.456258
          0.453570 -0.173084 32.443546
          0.654297 0.104821 31.700489
          0.615031 -0.190595 31.841739
          0.803975 -0.086508 32.477904
          0.883110 0.322899 32.098284
          0.712443 0.108522 32.456290
          0.453665 0.173119 32.443627
          0.654281 -0.104837 31.700479
          0.615049 0.190625 31.841782
          0.803932 0.086481 32.477958
          0.883163 -0.322913 32.098235
          0.942521 -0.107144 32.047526
          1.045593 0.035753 32.099010
          0.195199 0.119495 31.782970
          -0.038638 0.503111 31.969418
          0.147680 -0.163497 31.806060
          0.690158 0.213079 31.851906
          0.241989 0.369218 31.894504
          0.780591 0.140878 32.551343
          0.199039 0.049411 32.121496
          0.552922 -0.047421 31.519697
          1.015838 0.245117 32.143817
          0.229835 0.134589 32.135423
          -4.829986 2.361765 40.665806
          0.293874 -0.185879 32.396846
          -0.746772 -0.264554 32.014463
          -0.530750 0.208433 31.945076
          0.561005 -0.061334 31.593067
          -4.836954 2.387194 23.471698
          0.213394 -0.097409 31.896424
          0.794674 0.345059 32.049297
          -0.108644 0.222000 31.775622
          0.502521 0.189065 32.438380
          0.428168 0.214459 31.887200
          1.047605 0.176328 32.068106
          -0.704497 -0.254603 32.071433
          -0.273051 -0.002638 32.083404
          -0.251747 -0.201383 32.321103
          -0.299302 0.166977 32.322455
          -0.619547 -0.052618 31.637358
          -0.591816 0.116357 31.566150
          -0.704505 0.254606 32.071408
          -0.273441 0.002739 32.083455
          -0.251836 0.201414 32.321085
          -0.299298 -0.166994 32.322524
          -0.619538 0.052627 31.637379
          -0.591815 -0.116375 31.566167
          0.213364 0.097434 31.896415
          0.794502 -0.345050 32.049235
          -0.108659 -0.222035 31.775617
          0.502395 -0.189017 32.438353
          0.428096 -0.214412 31.887182
          1.047562 -0.176343 32.068089
          -4.841902 -2.305459 40.585006
          0.293869 0.185841 32.396859
          -0.746789 0.264576 32.014504
          -0.530744 -0.208421 31.945069
          0.561039 0.061367 31.593077
          -4.846941 -2.377839 23.480481
          -0.789882 0.290725 32.063832
          0.393688 -0.265451 32.423713
          0.543756 -0.009115 31.523905
          0.847460 -0.089684 32.516254
          0.995572 -0.271217 32.125449
          0.243947 -0.060877 32.471945
          1.009232 -0.143902 32.097005
          0.375281 0.285970 32.419601
          -0.480065 -0.145728 32.453292
          -0.980681 0.204299 32.019089
          -0.161834 0.450658 31.714898
          0.652842 -0.242524 32.016910
          0.901534 0.016791 32.396301
          -0.782215 -0.063916 32.458488
          0.570578 0.176385 31.985268
          0.616790 -0.187826 32.014124
          -0.726312 -0.019537 31.834272
          0.727181 0.176691 32.445877
          0.901531 -0.016842 32.396308
          -0.782220 0.063910 32.458560
          0.570316 -0.176282 31.985081
          0.616306 0.187677 32.013717
          -0.726314 0.019510 31.834191
          0.727295 -0.176621 32.445810
          1.009232 0.143771 32.097021
          0.375259 -0.285995 32.419618
          -0.480138 0.145682 32.453367
          -0.980636 -0.204342 32.019110
          -0.161724 -0.450694 31.714873
          0.652778 0.242515 32.016907
          -0.789622 -0.290728 32.063816
          0.393750 0.265441 32.423740
          0.543773 0.009097 31.523885
          0.847437 0.089721 32.516221
          0.995666 0.271187 32.125440
          0.243961 0.060845 32.471949
          -0.428585 -0.260993 32.304785
          0.406504 -0.253082 32.424834
          -0.715450 0.175850 31.793964
          -0.942608 0.059714 32.167902
          0.404346 -0.235780 31.853483
          -0.464118 0.132188 32.470280
          -0.104301 0.306790 32.052080
          0.818822 -0.120467 32.479281
          -0.007441 -0.466625 32.496383
          -0.126597 -0.243725 31.828889
          0.093522 -0.498751 32.123250
          -0.052693 0.220240 31.549377
          -0.467568 0.212554 32.410694
          -0.015589 0.617770 32.375716
          -0.080208 -0.168141 31.946374
          0.136150 0.442909 32.191707
          0.602665 0.124957 31.840159
          -0.844402 0.260409 32.116339
          -0.467549 -0.212576 32.410678
          -0.015555 -0.617815 32.375670
          -0.080206 0.168224 31.946529
          0.136130 -0.442960 32.191586
          0.602620 -0.124963 31.840160
          -0.844440 -0.260379 32.116406
          -0.104353 -0.306756 32.052151
          0.818817 0.120434 32.479255
          -0.007486 0.466636 32.496393
          -0.126618 0.243696 31.828894
          0.093510 0.498693 32.123309
          -0.052308 -0.219227 31.548761
          -0.428547 0.260975 32.304780
          0.406589 0.253096 32.424861
          -0.715385 -0.176020 31.794016
          -0.942636 -0.059586 32.167710
          0.404242 0.235833 31.853481
          -0.464225 -0.132016 32.470286
        </DataArray>
      </Points>
      <PointData Scalars="density">
        <DataArray type="Float64" Name="density" format="ascii">
          802.729287
          962.230993
          886.905059
          1056.017974
          750.248129
          991.777786
          1052.311937
          964.128591
          899.081915
          1155.847369
          935.075742
          894.502793
          980.860342
          818.974815
          1161.828705
          916.283023
          1091.407541
          1066.235925
          980.851181
          819.069393
          1161.786186
          916.141546
          1091.347393
          1066.317674
          1052.299833
          964.196741
          899.091227
          1156.009387
          935.010338
          894.173034
          802.851106
          962.166190
          886.836783
          1056.097198
          750.262355
          991.615255
          993.887416
          923.493809
          877.592521
          957.189251
          956.652554
          952.905055
          1073.113755
          892.739987
          996.489503
          996.739531
          801.554060
          955.887385
          976.900300
          1126.894272
          902.034180
          914.361238
          988.083738
          845.433128
          976.906462
          1126.958770
          901.946873
          914.439908
          988.089484
          845.322027
          1073.192651
          892.753396
          996.519148
          996.770199
          801.714524
          955.673906
          993.866230
          923.466609
          877.563189
          957.201903
          956.718053
          952.914545
          500.000000
          1047.487975
          1042.281849
          900.146151
          1020.004856
          500.000000
          1055.820334
          889.095646
          1133.252214
          961.265826
          802.487772
          949.172288
          946.779214
          860.543642
          986.179123
          1023.613340
          1124.398427
          877.867011
          946.652211
          859.649650
          985.891959
          1023.967073
          1124.391100
          877.887516
          1055.784795
          889.226991
          1133.248594
          961.211351
          802.480301
          949.172053
          500.000000
          1047.287001
          1042.117326
          900.065808
          1019.981837
          500.000000
          800.058219
          824.028377
          907.461008
          853.984694
          945.304099
          891.621743
          1091.555697
          972.261207
          912.021563
          947.025645
          1062.768471
          956.318781
          1036.284429
          1011.425499
          1065.012659
          989.827475
          1062.660272
          975.383069
          1036.355100
          1011.378281
          1064.959025
          989.830167
          1062.712634
          975.456716
          1091.557836
          972.256930
          912.023334
          946.954077
          1062.882967
          956.215058
          799.583567
          823.917659
          907.445491
          853.977965
          945.431938
          891.532442
          500.000000
          1016.542327
          1044.990198
          1140.001527
          1146.875608
          500.000000
          940.824728
          1008.737516
          916.834844
          975.008308
          977.384770
          935.826132
          856.028046
          886.501272
          1066.099346
          901.238857
          938.097133
          948.737416
          856.234546
          886.104716
          1065.955204
          901.294208
          938.232488
          948.749842
          940.686924
          1008.831722
          916.744782
          975.010598
          977.481826
          935.776655
          500.000000
          1016.685865
          1044.942755
          1139.958217
          1146.877660
          500.000000
          500.000000
          793.432378
          911.459902
          1130.025928
          977.808747
          500.000000
          500.000000
          939.407788
          1156.414657
          789.494824
          914.131568
          500.000000
          983.610522
          1039.006053
          874.343620
          982.765671
          930.530954
          896.922635
          983.858692
          1039.491407
          874.374278
          982.979674
          930.583626
          896.885969
          500.000000
          938.151958
          1156.446295
          788.739230
          914.167722
          500.000000
          500.000000
          793.751082
          911.463075
          1130.005554
          977.890725
          500.000000
          500.000000
          1016.534246
          1045.003876
          1140.002923
          1146.607124
          500.000000
          940.766796
          1008.712937
          916.823195
          975.016833
          977.388154
          935.891950
          856.024408
          886.346176
          1066.040094
          901.287941
          938.227671
          948.736474
          856.185938
          886.275288
          1065.933036
          901.362914
          938.073155
          948.814749
          940.582448
          1008.855550
          916.732175
          974.971657
          977.478584
          935.830030
          500.000000
          1016.385869
          1044.966729
          1139.964001
          1146.783151
          500.000000
          799.514381
          823.992316
          907.427075
          853.995263
          945.332262
          891.530709
          1091.557838
          972.253586
          911.989743
          946.983453
          1062.933190
          956.304492
          1036.305898
          1011.426130
          1064.988815
          989.829294
          1062.650807
          975.385310
          1036.327666
          1011.357783
          1064.987828
          989.823781
          1062.722557
          975.455768
          1091.553943
          972.257548
          912.070776
          947.004138
          1062.715503
          956.225102
          800.032029
          823.954843
          907.437810
          853.979133
          945.402518
          891.453407
          500.000000
          1047.506799
          1042.306146
          900.161323
          1020.007740
          500.000000
          1055.709926
          889.117013
          1133.210411
          961.246915
          802.530190
          949.192188
          946.793826
          860.399936
          986.084023
          1023.708441
          1124.396436
          877.867809
          946.646361
          859.810672
          985.972585
          1023.882319
          1124.383810
          877.890840
          1055.790239
          889.203041
          1133.179435
          961.231784
          802.387820
          949.152428
          500.000000
          1047.261356
          1042.098055
          900.108175
          1019.985607
          500.000000
          993.916045
          923.505489
          877.593631
          957.203580
          956.683166
          952.924056
          1073.109612
          892.729921
          996.536564
          996.731749
          801.509712
          955.861605
          976.896845
          1126.912464
          902.006052
          914.370829
          988.078240
          845.378287
          976.907899
          1126.940069
          901.944207
          914.418248
          988.084237
          845.377758
          1073.203125
          892.748474
          996.489298
          996.782383
          801.664976
          955.686080
          993.836633
          923.444244
          877.571671
          957.191457
          956.684444
          952.860315
          802.756548
          962.239459
          886.925687
          1056.011093
          750.180316
          991.741572
          1052.414284
          964.122182
          899.070620
          1155.866190
          934.913002
          894.386131
          980.872516
          819.193499
          1161.885634
          916.137927
          1091.399855
          1066.230065
          980.866342
          818.989457
          1161.835290
          916.274401
          1091.353108
          1066.324852
          1052.177916
          964.201284
          899.148390
          1155.881255
          934.960179
          894.238054
          802.836939
          962.136344
          886.825440
          1056.103093
          750.338053
          991.685306
        </DataArray>
        <DataArray type="Float64" Name="pressure" format="ascii">
          -5918.121377
          -1133.070204
          -3392.848219
          1680.539229
          -7492.556131
          -246.666416
          1569.358096
          -1076.142264
          -3027.542557
          4675.421062
          -1947.727739
          -3164.916214
          -574.189751
          -5430.755556
          4854.861147
          -2511.509307
          2742.226230
          1987.077743
          -574.464576
          -5427.918215
          4853.585572
          -2515.753613
          2740.421802
          1989.530213
          1568.994984
          -1074.097781
          -3027.263197
          4680.281615
          -1949.689874
          -3174.808972
          -5914.466810
          -1135.014299
          -3394.896496
          1682.915935
          -7492.129361
          -251.542362
          -183.377512
          -2295.185719
          -3672.224364
          -1284.322458
          -1300.423370
          -1412.848344
          2193.412651
          -3217.800399
          -105.314911
          -97.814067
          -5953.378186
          -1323.378447
          -692.990990
          3806.828159
          -2938.974601
          -2569.162857
          -357.487870
          -4637.006172
          -692.806143
          3808.763090
          -2941.593810
          -2566.802746
          -357.315468
          -4640.339177
          2195.779536
          -3217.398116
          -104.425551
          -96.894034
          -5948.564283
          -1329.782832
          -184.013087
          -2296.001721
          -3673.104336
          -1283.942915
          -1298.458406
          -1412.563647
          -15000.000000
          1424.639258
          1268.455471
          -2995.615462
          600.145691
          -15000.000000
          1674.610031
          -3327.130632
          3997.566406
          -1162.025207
          -5925.366847
          -1524.831362
          -1596.623567
          -4183.690752
          -414.626314
          708.400208
          3731.952800
          -3663.989673
          -1600.433665
          -4210.510508
          -423.241219
          719.012182
          3731.732990
          -3663.374533
          1673.543843
          -3323.190262
          3997.457824
          -1163.659470
          -5925.590980
          -1524.838421
          -15000.000000
          1418.610016
          1263.519794
          -2998.025746
          599.455120
          -15000.000000
          -5998.253429
          -5279.148703
          -2776.169764
          -4380.459176
          -1640.877037
          -3251.347704
          2746.670908
          -832.163795
          -2639.353123
          -1589.230665
          1883.054122
          -1310.436567
          1088.532882
          342.764982
          1950.379760
          -305.175748
          1879.808155
          -738.507922
          1090.652988
          341.348417
          1948.770761
          -305.094976
          1881.379016
          -736.298535
          2746.735065
          -832.292094
          -2639.299974
          -1591.377683
          1886.489023
          -1313.548257
          -6012.492989
          -5282.470238
          -2776.635272
          -4380.661044
          -1637.041856
          -3254.026728
          -15000.000000
          496.269810
          1349.705945
          4200.045809
          4406.268254
          -15000.000000
          -1775.258145
          262.125476
          -2494.954688
          -749.750764
          -678.456896
          -1925.216030
          -4319.158610
          -3404.961833
          1982.980395
          -2962.834285
          -1857.086023
          -1537.877527
          -4312.963607
          -3416.858514
          1978.656133
          -2961.173771
          -1853.025371
          -1537.504739
          -1779.392275
          264.951664
          -2497.656531
          -749.682057
          -675.545227
          -1926.700360
          -15000.000000
          500.575944
          1348.282660
          4198.746509
          4406.329789
          -15000.000000
          -15000.000000
          -6197.028659
          -2656.202954
          3900.777855
          -665.737605
          -15000.000000
          -15000.000000
          -1817.766372
          4692.439709
          -6315.155285
          -2576.052955
          -15000.000000
          -491.684350
          1170.181589
          -3769.691408
          -517.029884
          -2084.071393
          -3092.320961
          -484.239241
          1184.742223
          -3768.771663
          -510.609790
          -2082.491229
          -3093.420933
          -15000.000000
          -1855.441259
          4693.388836
          -6337.823111
          -2574.968344
          -15000.000000
          -15000.000000
          -6187.467553
          -2656.107763
          3900.166624
          -663.278236
          -15000.000000
          -15000.000000
          496.027383
          1350.116289
          4200.087689
          4398.213728
          -15000.000000
          -1776.996121
          261.388100
          -2495.304143
          -749.495014
          -678.355394
          -1923.241505
          -4319.267756
          -3409.614712
          1981.202812
          -2961.361765
          -1853.169871
          -1537.905790
          -4314.421857
          -3411.741366
          1977.991090
          -2959.112569
          -1857.805362
          -1535.557519
          -1782.526574
          265.666495
          -2498.034742
          -750.850293
          -675.642494
          -1925.099114
          -15000.000000
          491.576082