<?xml version="1.0"?>
<VTKFile type="PolyData" version="0.1" byte_order="LittleEndian">
  <PolyData>
    <Piece NumberOfPoints="686" NumberOfVerts="686" NumberOfLines="0" NumberOfStrips="0" NumberOfPolys="0">
      <Points>
        <DataArray type="Float64" NumberOfComponents="3" format="ascii">
          -0.829429 -0.068084 11.880557
          -0.461887 0.064012 11.990507
          -0.175954 -0.012058 12.264615
          -0.433567 -0.698851 11.964304
          -0.364110 -0.652763 11.840667
          -0.479841 0.068124 11.978126
          -0.092163 0.076408 12.519538
          -0.856732 -0.044623 11.897723
          -0.352599 -0.142452 11.864786
          -1.562708 -0.083592 12.044441
          -0.559032 -0.067007 11.901762
          -0.109796 0.058213 11.910537
          -1.347421 -0.086603 11.893704
          -1.575644 -0.032559 13.157451
          -1.038439 -0.083180 11.912831
          -0.027872 -0.107428 11.544407
          0.330818 -0.124938 12.318740
          -1.578803 -0.057080 12.154438
          -0.253446 -0.081251 12.659474
          -0.489149 -0.101384 11.888962
          -1.580869 -0.066865 13.128729
          -1.354819 -0.078576 11.887714
          -0.029963 -0.016186 10.601163
          -1.266397 -0.043851 11.941095
          -0.123198 -0.132197 11.527373
          -0.965081 -0.077528 11.954823
          -0.381141 -0.236812 11.923993
          -1.527091 -0.085065 12.193796
          -1.299200 -0.097310 11.887543
          -0.314184 -0.341304 11.987086
          -0.304933 -0.159827 12.623105
          -1.227533 -0.047175 11.938424
          0.000045 0.148825 12.354035
          -0.366527 0.090938 12.179155
          -1.577722 -0.052084 13.120606
          -0.639952 -0.074482 11.896073
          -0.122417 -0.074151 12.095478
          -1.534920 0.046129 12.155141
          -0.750284 -0.081958 11.941802
          0.000880 0.220119 11.628096
          -1.423146 -0.020262 12.111339
          -1.571380 -0.068017 13.155633
          -0.852973 -0.091821 11.905954
          -0.316740 0.392232 12.183228
          -0.421007 0.074176 12.328538
          -0.335858 -0.190452 11.629002
          -0.087062 0.198368 11.814699
          -0.136050 0.385172 12.162381
          -0.284130 0.073169 12.259955
          -0.204153 -2.270628 9.942591
          -0.496304 -0.574743 11.848821
          -5.683341 -3.542070 11.916250
          -0.168239 -0.173828 12.672997
          -5.684953 -3.542115 11.970474
          -0.028340 0.139224 12.302790
          0.071633 -1.143113 12.679892
          -0.388923 0.414240 12.187170
          -3.912448 -2.023927 10.204004
          -0.348543 -0.637979 11.970408
          0.349755 -0.197262 12.065502
          0.071306 -0.070166 12.240470
          -3.418878 -2.076821 13.960344
          -1.465745 0.028260 12.235687
          -5.697373 -0.068550 7.731957
          -0.662620 -1.522643 11.592143
          -3.155447 -0.030182 11.944461
          -5.677087 -3.543831 11.944153
          -3.157482 -0.062817 11.916235
          -0.163023 -0.250432 12.010835
          -5.689846 -0.068553 16.154697
          -0.692753 -0.009326 10.795832
          -0.067921 -0.086599 10.596183
          -5.663044 -0.050000 7.696238
          -3.139692 -0.050055 11.951529
          -5.655194 -0.050000 16.190085
          -0.468495 -0.018530 12.017804
          0.026102 -0.065103 12.684095
          -5.697373 -0.031450 7.731957
          -0.103446 1.001876 11.325491
          -3.155440 -0.069782 11.944521
          -5.667576 3.718627 11.944310
          -3.157513 -0.037164 11.916251
          -0.044301 0.288488 11.928005
          -5.689846 -0.031447 16.154697
          0.113909 -0.051795 11.774367
          -3.911700 1.924594 10.204442
          -0.350732 -0.093335 11.859069
          -0.153208 0.768949 12.338988
          -0.109158 -0.005042 12.360384
          -3.433921 2.061210 14.102535
          -1.463231 0.034280 12.230779
          0.075838 2.143043 9.763753
          -0.108505 -0.109482 12.312755
          -5.688573 3.695248 11.928887
          0.334928 -0.146566 12.897065
          -5.689232 3.694371 11.957682
          0.183875 0.471558 12.025873
          -0.331314 1.087787 12.548971
          0.007190 -0.168775 12.158287
          -0.130188 0.393861 12.055324
          0.031778 -0.076298 10.670306
          -3.313082 -1.911419 11.940154
          -1.470511 -0.085996 11.987542
          0.035584 -0.100846 12.077580
          -0.141935 -0.241342 12.588965
          -0.062352 -0.088267 10.553797
          -3.836386 -2.768785 8.986864
          -0.349891 -0.196842 11.613578
          -0.706708 -0.127924 11.900010
          0.258312 -0.023463 12.705087
          -3.394564 -2.193027 14.096327
          -0.001681 -0.286782 11.701829
          -0.401923 0.111467 12.320937
          0.655341 -1.381494 11.768948
          -0.192685 0.111651 11.803178
          -0.085188 -0.189398 12.600217
          0.096117 -0.153931 12.366363
          -0.330573 -1.141735 13.000370
          -0.483344 -0.701871 11.921578
          -3.322665 -0.055992 2.666405
          -1.034349 -0.056321 11.912797
          -0.140564 0.187522 12.154744
          -0.751167 -0.016616 10.926549
          -0.291941 -0.427162 11.891687
          -1.574647 -0.029826 13.155859
          -3.327479 -0.045610 21.221570
          -0.621851 -0.092994 11.902305
          -0.196802 1.023582 11.489928
          -0.508135 -0.644871 11.844623
          -0.324875 0.017855 12.567827
          0.064291 -0.054627 12.523633
          -0.310683 1.070712 12.627763
          -0.384874 0.480390 12.088472
          -0.045263 -0.133634 10.590345
          -3.842806 2.680962 8.987792
          0.096890 -0.122814 12.396842
          -0.439937 0.489893 12.117695
          -0.359699 0.022681 12.191909
          -3.320352 1.980767 14.001522
          -0.128657 0.387577 12.072308
          0.368907 0.282750 12.169120
          0.063254 -0.131863 12.916962
          0.020433 -0.058486 10.484052
          -3.317384 1.518110 11.940744
          -1.548249 -0.081945 12.027504
          -0.434052 0.498145 12.115257
          -0.253537 0.367152 12.160793
          -0.659076 -1.546321 11.699104
          -3.910904 -2.056117 10.208275
          -3.317612 -1.917530 11.943450
          -0.125342 -0.365709 11.929983
          -3.317356 -1.921347 11.945323
          -3.447380 -2.101604 13.956362
          0.189826 -1.217925 12.812680
          -3.945056 -2.029235 10.208133
          0.350628 -2.225575 9.621352
          -0.290336 -3.357629 8.706618
          -0.245951 0.018530 11.460700
          -0.546744 -3.333716 15.178952
          0.265805 -1.290186 12.784299
          -3.472667 -2.160588 13.987860
          -3.305776 -0.048143 2.667809
          -0.261970 -3.296196 8.739134
          -3.847301 -2.772341 8.988923
          -0.012413 -3.847250 11.899264
          -3.333808 -2.120392 14.091169
          -0.633211 -3.280593 15.171176
          -3.307098 -0.051193 21.200907
          -0.671804 -0.047087 10.903913
          -0.253846 -0.188297 12.374839
          -0.047759 -0.007120 8.361897
          -0.329469 -0.004889 12.512055
          0.088249 -0.121535 15.824026
          -0.217393 -0.235392 12.402562
          0.336690 -0.081035 12.701408
          -3.310117 -0.053698 2.668128
          -0.267600 3.222352 8.668639
          -3.844273 2.680768 8.989363
          0.170273 3.829797 11.945025
          -3.458979 2.069304 14.084300
          -0.633204 3.180588 15.171166
          -3.313829 -0.053278 21.222105
          -3.944792 1.929644 10.208282
          0.106983 2.146591 9.677699
          -0.232238 3.145125 8.679529
          0.263881 -0.148410 11.563896
          -0.546736 3.233712 15.178964
          -0.275639 1.183100 12.658789
          -3.425655 1.968287 13.980880
          -0.127349 1.090721 11.515928
          -3.909610 1.954600 10.206342
          -3.310302 1.514535 11.945816
          -0.157058 0.709984 12.332506
          -3.310718 1.526091 11.941947
          -3.410809 2.123672 13.999587
          -0.329243 1.147303 12.643937
          0.710112 -1.316644 11.709112
          0.293519 -3.289476 8.658136
          -3.936464 -2.054079 10.223202
          -3.311895 -1.912882 11.938088
          -3.435496 -2.201303 14.069180
          -0.610345 -3.303231 15.144393
          0.104891 -1.188671 12.821785
          -0.267164 -3.321400 8.660609
          0.048005 -0.128283 11.551661
          -0.286129 -0.463950 11.948341
          -0.446671 0.063765 12.070512
          -0.133548 -0.052867 12.200821
          0.048483 -0.198664 12.897644
          -0.544085 -3.330388 15.204969
          -3.919028 -2.034715 10.237917
          -0.150807 0.025108 11.773414
          -0.150363 -2.172149 9.864617
          -0.149179 -0.144367 12.092904
          0.028366 -1.206530 12.822544
          -1.491488 -0.062998 11.983575
          -3.320923 -2.137558 13.970952
          -3.320485 -0.042167 2.677739
          -0.722501 -0.054452 10.802321
          -0.784336 0.002868 10.859225
          0.367599 0.052501 11.916220
          -0.341121 -0.226399 11.939053
          -0.438264 0.077849 11.998383
          -3.312443 -0.049919 21.210693
          -3.919304 1.936727 10.238147
          -0.115200 0.093493 11.904573
          -0.059181 2.037446 9.845884
          -0.141846 0.245138 12.064692
          0.620142 1.077899 13.230483
          -1.456808 0.011707 12.237066
          -3.339398 1.984575 13.962647
          -0.188833 3.231385 8.711370
          0.095490 -0.011731 11.775093
          -0.257081 0.415566 12.089520
          -0.016088 0.236265 11.643625
          -0.285937 -0.022081 12.372823
          0.051990 -0.160385 12.767751
          -0.544082 3.230389 15.204965
          -0.135191 1.103440 11.510743
          0.155565 3.157490 8.664378
          -3.938495 1.952505 10.224319
          -3.321539 1.527723 11.938538
          -3.328432 1.999663 14.063590
          -0.610362 3.203228 15.144402
          -0.218847 1.190658 12.534338
          -0.320109 -0.175699 11.836821
[...]
      <PointData Scalars="density">
        <DataArray type="Float64" Name="density" format="ascii">
          991.206449
          1025.111070
          993.676421
          1002.790127
          995.343673
          993.539055
          982.778089
          985.512034
          1067.917185
          991.346894
          998.015806
          993.522244
          1005.566238
          1001.527946
          996.846757
          987.084672
          1030.699018
          1005.816815
          1013.218283
          968.774210
          1000.202623
          980.459409
          995.059550
          999.632619
          1028.440706
          985.522913
          975.221280
          993.030898
          1011.340680
          993.384226
          1030.620183
          990.670279
          962.052236
          993.230679
          998.846664
          990.164365
          1021.627355
          1010.284341
          997.070758
          925.673548
          994.959719
          1000.643662
          1025.006818
          998.491846
          975.075284
          995.055033
          946.063971
          993.112697
          1047.283323
          1000.742054
          1009.440636
          616.987540
          978.290068
          616.930577
          1033.855029
          1004.779239
          1003.995361
          999.391347
          979.870477
          993.301851
          1038.174937
          1002.770421
          996.197263
          591.088117
          978.745169
          1001.680721
          614.605364
          1000.265911
          1014.479252
          591.075029
          987.336590
          998.013804
          573.360847
          1002.792374
          573.330491
          1002.691436
          981.189780
          591.088117
          989.205262
          1001.687263
          614.468179
          1000.257302
          1023.372988
          591.075029
          991.648610
          999.732118
          956.741611
          1009.597906
          1044.898827
          997.033425
          994.318662
          971.711728
          979.675945
          606.584225
          1000.011955
          606.647868
          1019.494100
          997.702072
          1001.954807
          1013.410933
          1001.422678
          829.343249
          1001.559596
          989.855871
          986.845637
          1001.282557
          828.837176
          940.100309
          965.044058
          985.553859
          1006.054744
          994.081126
          948.431548
          1005.013396
          940.005837
          1012.804383
          1001.599470
          1012.398255
          995.864155
          828.091239
          1000.627883
          1008.668017
          1001.763536
          1006.050523
          998.480951
          821.350091
          983.141617
          1004.659362
          1013.789787
          1009.617172
          1007.332792
          1003.151844
          1029.677774
          992.350676
          829.171238
          982.301953
          969.889423
          1033.519871
          998.501996
          1047.503454
          1001.792192
          1010.222245
          996.388444
          827.510214
          998.296108
          968.071603
          1026.707270
          986.573816
          1000.444887
          829.946021
          1009.569463
          830.544212
          995.929331
          996.886654
          997.096701
          1005.467214
          999.688463
          972.259485
          998.512536
          989.573804
          1004.772316
          827.965011
          999.707187
          829.027823
          1003.702020
          994.268107
          996.947583
          815.701072
          1006.037799
          1020.363475
          1007.523802
          1033.403557
          1022.639729
          977.073316
          1014.891519
          827.835770
          992.649252
          829.302335
          988.694611
          983.582200
          996.950353
          817.553266
          997.782156
          1016.849236
          998.731930
          970.560057
          998.510518
          992.855719
          993.687095
          996.764510
          999.430894
          826.005104
          997.692892
          827.491048
          1007.571471
          1008.592362
          993.361128
          995.268527
          1005.303145
          828.906598
          1013.605111
          997.412727
          992.419509
          1012.031771
          974.733907
          1006.040511
          1006.127454
          1032.062376
          1003.983280
          1000.727437
          999.940690
          1110.319588
          1005.527701
          1005.590058
          997.324867
          984.609318
          1014.945722
          828.984110
          1002.058157
          995.876270
          965.447199
          1073.477864
          981.136993
          821.776856
          1000.182832
          1014.437542
          990.404211
          991.296836
          999.270528
          1001.720826
          999.324161
          998.283796
          993.451230
          1009.865902
          937.965708
          1031.958210
          991.438455
          1000.723383
          1003.326226
          1003.776562
          1004.351159
          829.565373
          1003.632390
          997.415704
          999.305240
          1053.388355
          825.552989
          1017.719811
          990.534503
          1006.669283
          1010.664512
          984.908091
          828.696894
          1004.439402
          994.239730
          992.831401
          1007.508607
          986.916366
          991.324380
          999.356283
          1010.828239
          994.778130
          982.097719
          996.083549
          1010.589212
          1016.060588
          1010.459759
          993.253793
          998.338369
          997.504618
          1027.409503
          1008.523226
          987.016582
          1005.775466
          1017.739373
          989.117957
          1064.383991
          996.010638
          1012.913032
          992.068317
          829.769174
          995.708804
          1008.493416
          1001.505135
          1004.670369
          1002.589209
          996.902716
          1005.459624
          828.668509
          996.153562
          998.614252
          1001.718610
          1005.786692
          921.304170
          997.317168
          995.038410
          994.256261
          999.296637
          995.347265
          992.032991
          984.152874
          999.932359
          1009.263961
          994.562758
          1008.787980
          996.035462
          987.104167
          1012.987382
          995.593172
          998.567122
          986.014648
          1009.249261
          988.338001
          994.494637
          984.424587
          999.777925
          994.569181
          1012.468768
          1005.403314
          1004.415693
          983.461217
          1000.502354
          995.673634
          994.870859
          993.844339
          988.441932
          1005.407872
          994.494427
          999.592523
          996.827112
          1004.993004
          992.546579
          996.389471
          996.034269
          1014.661811
          1000.813127
          975.890485
          973.836928
          1011.815946
          1007.640624
          1006.698201
          997.499268
          976.947926
          997.490684
          999.187105
          1056.993495
          998.774817
          1015.500256
          1003.662379
          955.679169
          1013.286521
          964.150797
          990.207115
          995.065091
          996.038758
          941.782368
          996.994479
          999.712526
          1004.844561
          1019.049680
          1037.783578
          1007.110693
          994.496166
          1004.586622
          1004.242314
          1015.810713
          965.255663
          994.371035
          973.185355
          1023.912190
          997.146087
          998.445763
          995.284534
          954.458882
          1001.051800
          998.710186
          994.495791
          1026.883177
          1029.032043
          954.306697
          993.196433
          997.240793
          996.037249
          921.933915
          1003.588991
          1007.606629
          951.616845
          1000.608601
          1000.440578
          1005.420974
          1013.241303
          1014.134170
          1002.620126
          817.542824
          1001.755074
          988.657099
          1005.719853
          998.284110
          970.354664
          827.780857
          1010.376012
          991.813743
          960.067064
          999.032869
          993.517799
          988.761210
          999.747128
          1014.981415
          1006.584680
          1002.292834
          988.023889
          1009.802923
          1001.233026
          1007.506551
          1006.204184
          992.967568
          972.584962
          954.012793
          1006.988462
          1005.466396
          1000.105561
          1036.768907
          982.681517
          977.054091
          1002.482825
          1010.009774
          999.538367
          809.951184
          1020.143708
          973.113720
          1015.946307
          997.055649
          999.683008
          998.120230
          1024.168504
          781.788061
          1008.048200
          1006.961472
          996.325574
          1009.466839
          983.944209
          1001.052023
          993.415272
          1004.385032
          819.339767
          1014.785315
          997.409839
          1002.786136
          1008.588395
          980.903928
          971.607703
          1007.123024
          952.400653
          1016.190378
          1000.741211
          1000.170814
          941.913886
          1012.023092
          988.049544
          1002.756581
          1035.520310
          1012.626103
          822.671986
          988.883785
          994.151973
          959.046815
          1004.711750
          971.524267
          793.276022
          1000.176161
          979.673578
          1018.928761
          993.783514
          994.421671
          971.300690
          990.335629
          998.085165
          950.745971
          1011.855815
          975.283281
          976.398531
          943.540732
          1000.735165
          996.939395
          1003.301815
          1004.370188
          828.607286
          1012.210579
          997.412831
          999.726761
          1005.881717
          999.466126
          790.403467
          979.660507
          817.571141
          1000.861232
          993.027336
          997.754708
          997.361887
          1003.342467
          969.410183
          998.517553
          1005.968877
          998.987358
          823.636539
          1000.302720
          826.395894
          1011.240505
          974.759371
          996.943958
          816.094630
          997.011544
          988.585075
          1004.461592
          1056.649265
          1004.728245
          1003.930705
          992.526150
          810.495480
          993.230139
          807.216480
          988.100274
          990.447551
          996.947299
          819.535001
          997.766236
          1005.366968
          999.090944
          1020.567841
          998.515023
          1013.963150
          1003.431037
          990.241823
          999.451121
          829.773797
          988.845006
          828.777150
          1007.443549
          1004.600578
          965.702739
          984.427981
          996.830703
          809.495705
          1030.174325
          992.345155
          982.098428
          1001.776404
          823.877160
          1012.435316
          985.165434
          1000.820878
          983.596017
          989.142431
          1000.307373
          994.574828
          994.285762
          1003.537904
          1002.661776
          987.314088
          906.565377
          806.274874
          946.561237
          1027.374098
          1004.503040
          1015.196048
          1000.850099
          818.645721
          958.449083
          1007.125253
          991.176306
          1005.384709
          994.605790
          1006.147728
          1007.781677
          996.391125
          813.799685
          969.328713
          1004.109467
          991.075283
          1012.509927
          1010.769672
          1048.332441
          1011.667624
          1000.023931
          829.965122
          982.787716
          1002.619173
          1011.637176
          1003.989385
          995.933265
          500.000000
          1007.264821
          500.000000
          990.486251
          992.525484
          1009.004846
          999.714481
          1021.385486
          1013.944491
          976.323543
          1019.877725
          1007.824810
          591.362800
          994.618621
          999.209592
          500.000000
          1005.235523
          1086.896195
          591.339657
          1000.086442
          984.769750
          573.885576
          998.812795
          573.841796
          992.662791
          996.814514
          591.362800
          1002.367672
          999.053124
          611.590037
          1006.119138
          1009.509783
          591.339657
          976.214072
          999.723158
          1023.209444
          1008.277643
          1001.213968
          1005.127318
          961.932835
          994.535050
          1018.854696
          600.917236
          1020.790326
          600.637392
          983.547241
          1004.734944
          948.738282
          960.850267
          970.530011
          1009.967437
          992.628713
          1014.015735
          992.972997
          993.205272
          1053.406931
          991.249080
          1015.629137
          990.808297
          974.789270
          1000.977650
          1026.153989
          1027.996513
          1032.151702
          1003.087464
          996.487579
          996.136742
          997.204888
          977.848090
          1003.950301
          945.323737
          955.387666
          959.413179
          996.721480
          926.191507
          952.291630
          1012.919502
          1007.205157
          1001.503941
          1006.406413
          1008.034919
          1000.887445
          984.601647
          988.673147
          972.797189
          965.311119
          981.662505
          965.619300
          1002.850960
          1015.194316
          980.061030
          987.636267
          1011.232539
          985.395230
          1012.405005
          963.832732
        </DataArray>
        <DataArray type="Float64" Name="pressure" format="ascii">
          -1055.226149
          3013.328425
          -758.829504
          334.815253
          -558.759289
          -775.313431
          -2066.629295
          -1738.555961
          8150.062154
          -1038.372705
          -238.103227
          -777.330676
          667.948540
          183.353523
          -378.389195
          -1549.839390
          3683.882198
          698.017813
          1586.193911
          -3747.094837
          24.314708
          -2344.870952
          -592.854014
          -44.085739
          3412.884732
          -1737.250435
          -2973.446395
          -836.292267
          1360.881646
          -793.892873
          3674.421910
          -1119.566577
          -4553.731668
          -812.318463
          -138.400312
          -1180.276144
          2595.282568
          1234.120897
          -351.509073
          -8919.174237
          -604.833682
          77.239393
          3000.818114
          -180.978441
          -2990.965953
          -593.396016
          -6472.323486
          -826.476372
          5673.998784
          89.046432
          1132.876317
          -45961.495165
          -2605.191884
          -45968.330728
          4062.603527
          573.508648
          479.443288
          -73.038402
          -2415.542778
          -803.777828
          4580.992435
          332.450496
          -456.328386
          -49069.425919
          -2550.579711
          201.686488
          -46247.356357
          31.909267
          1737.510198
          -49070.996553
          -1519.609145
          -238.343536
          -51196.698373
          335.084900
          -51200.341036
          322.972274
          -2257.226383
          -49069.425921
          -1295.368548
          202.471611
          -46263.818512
          30.876259
          2804.758550
          -49070.996553
          -1002.166815
          -32.145806
          -5191.006634
          1151.748695
          5387.859267
          -355.988990
          -681.760547
          -3394.592613
          -2438.886572
          -47209.893040
          1.434592
          -47202.255808
          2339.292014
          -275.751313
          234.576796
          1609.312016
          170.721413
          -20478.810156
          187.151580
          -1217.295501
          -1578.523509
          153.906842
          -20539.538850
          -7187.962868
          -4194.713019
          -1733.536863
          726.569267
          -710.264916
          -6188.214236
          601.607493
          -7199.299612
          1536.525981
          191.936456
          1487.790616
          -496.301344
          -20629.051267
          75.345978
          1040.162092
          211.624277
          726.062813
          -182.285919
          -21437.989127
          -2023.005999
          559.123481
          1654.774481
          1154.060610
          879.935079
          378.221327
          3561.332882
          -917.918823
          -20499.451469
          -2123.765682
          -3613.269300
          4022.384524
          -179.760500
          5700.414464
          215.063033
          1226.669401
          -433.386779
          -20698.774316
          -204.467097
          -3831.407682
          3204.872430
          -1611.142127
          53.386420
          -20406.477430
          1148.335569
          -20334.694566
          -488.480302
          -373.601570
          -348.395937
          656.065700
          -37.384445
          -3328.861828
          -178.495656
          -1251.143518
          572.677907
          -20644.198661
          -35.137543
          -20516.661245
          444.242357
          -687.827176
          -366.290037
          -22115.871369
          724.535856
          2443.617017
          902.856205
          4008.426899
          2716.767422
          -2751.202082
          1786.982257
          -20659.707601
          -882.089760
          -20483.719820
          -1356.646622
          -1970.136057
          -365.957585
          -21893.608123
          -266.141278
          2021.908270
          -152.168396
          -3532.793181
          -178.737849
          -857.313714
          -757.548561
          -388.258768
          -68.292680
          -20879.387569
          -276.852979
          -20701.074273
          908.576503
          1031.083466
          -796.664604
          -567.776701
          636.377426
          -20531.208202
          1632.613330
          -310.472771
          -909.658911
          1443.812511
          -3031.931145
          724.861366
          735.294507
          3847.485176
          477.993587
          87.292393
          -7.117172
          13238.350540
          663.324092
          670.806906
          -321.015946
          -1846.881810
          1793.486694
          -20521.906799
          246.978832
          -494.847554
          -4146.336149
          8817.343650
          -2263.560824
          -21386.777305
          21.939883
          1732.505099
          -1151.494651
          -1044.379666
          -87.536685
          206.499168