<?xml version="1.0"?>
<VTKFile type="PolyData" version="0.1" byte_order="LittleEndian" header_type="UInt32" compressor="vtkZLibDataCompressor">
  <PolyData>
    <Piece NumberOfPoints="686" NumberOfVerts="686" NumberOfLines="0" NumberOfStrips="0" NumberOfPolys="0">
      <PointData>
        <DataArray type="Float64" Name="density" format="ascii" RangeMin="500" RangeMax="1261.6990568689814">
          981.4119955338828 784.3656289331474 899.9022434223801 1021.7397022761402 711.7336283964191 853.2494255818146
          915.4660837785938 1052.048690461141 843.3220742980386 725.4470336758566 1175.3382819812975 518.6602007947756
          936.0702727682225 994.6759822338139 951.4669260522221 887.6387775595279 983.4567603010075 776.7700897529255
          905.2073866222242 1250.1433853748115 996.9937017561759 954.6208790747204 500 1013.5299934375425
          943.376579348753 1049.2467250257107 1004.9012580091402 746.1888597436268 911.933714488441 743.810436951125
          750.882012586062 883.0606462907929 877.83911999087 909.7279752436883 1018.9432834469255 823.9432740388627
          535.3485019290963 687.5586972891952 906.7788538678137 1025.2998694359612 991.5473040998432 992.9371669044066
          836.6837711191517 851.0014031843253 670.4163086924043 789.803107372618 741.7241577945161 859.2674319741957
          930.1058630427148 1086.446717601935 882.753767729893 617.9938300555577 777.7733002506276 618.4155418308643
          883.755267270294 1009.1970237605407 1023.4966247903624 999.7434029943768 840.5488883365638 837.2584786711517
          967.2839323563493 985.359867999156 751.668027862592 699.1911334420039 984.75890430844 1000.715230150704
          617.4058712385574 999.7791536223428 1082.3146099924327 621.3928805723592 592.2992102842322 953.0724536334487
          623.7157887637435 1000.4976788506041 731.8636417666423 1043.093806931691 705.3819842463714 699.1915317087756
          968.3603665928786 1000.728723980225 603.5408598898671 999.7626364094489 977.1294626054778 621.3928459598283
          852.6813214668193 1000.2050334934465 875.3952501654027 975.6023983816686 500 948.2377086667103
          729.2175717171287 1056.8718826211777 794.2762790639484 611.014422573008 964.1881652977298 612.6543775924058
          1016.409674487822 962.6142066259993 500 903.7772454493647 947.248096242571 831.427645506273
          1001.7363310097767 922.9913698466046 860.8471680339981 896.6200726173057 822.0829330999359 756.2302762505926
          831.7251032702267 728.8787363568407 942.0585559754128 729.2565014604908 934.7081317661128 998.9238404439055
          1067.353205221753 627.8909761808402 929.7674688627146 1005.8540830565415 773.5583265256096 831.0651375259675
          545.2174089527855 840.849517374607 875.5350002132968 906.579864667247 1009.9724867836973 822.5572265786994
          772.7626063170898 981.4243881286786 793.9873464499559 878.0025355345306 771.7558592833278 970.2579068721762
          954.1495171425425 948.6719333376158 831.3321129641411 878.265923107046 940.2521539811174 1033.415470908685
          929.7001376275442 702.7377367440506 788.5250176199082 783.8543412008386 937.2547779466562 831.5044095507538
          766.1224919478718 871.8180155365483 698.1629773646082 1042.6131902780903 1000.0890877841232 831.4350209830843
          813.0790557110587 831.0746355375182 949.2528949461425 990.9375113345496 998.1744932907085 1000.0350338921625
          998.7688916393652 974.8890875221821 936.4950311754134 988.8869340746813 979.5779516840879 831.1907164722618
          1002.2529319718691 820.6858378746374 996.6493813408626 904.2608283801907 928.678298398473 815.2462009839462
          600.6521024257867 660.0525152961752 500 834.5574680831468 921.9634561528372 1037.046361160962
          860.7602315224661 831.4721978012346 999.9644671878277 831.3300790014782 994.4275852446432 1020.2947130184126
          927.4014499482358 818.9730744732191 999.7519491149789 936.4959094723835 999.9600634762176 500
          941.2360061658205 985.3000620846852 988.7655202867275 1073.057200700621 1000.2720854808657 831.4989894505705
          969.2986710941067 831.0188064831511 993.2399543849746 931.9612086031152 999.3273733921136 1002.1032461996625
          998.1986028457028 831.079436214078 995.0060857371648 1036.2721614247605 1001.7288077666383 1005.9718795136279
          509.90205862191783 741.5952198010618 1092.108152857254 586.9537208541354 560.6597835114607 938.909812283275
          1002.9073341715055 1002.1133471709278 978.5023253261801 794.7059210921649 998.0410192502097 687.662589519872
          1028.943237568422 831.2847964738697 901.7686489070179 1057.0078656606518 816.0619126332509 749.6206114041663
          899.4716079158535 808.0452833824277 999.7177346922015 842.8568786984838 969.3085174174147 1083.3144688803422
          999.5859219557303 761.5795108882334 947.7827613150805 999.9960913447685 741.5792432901832 732.7586324985158
          876.3387065155766 897.153919573901 895.8459793225526 940.9188379103654 1017.819797175309 1000.0079110156086
          999.801336983013 831.0155112533919 944.6767690129593 1034.6566151590434 994.7305494592931 774.4444808085404
          827.6723735229551 1003.7601374171192 1008.8314080649055 995.4103299731458 944.9899366351013 710.7965928258196
          827.2349235989805 1000.0917962822532 1000.0774955747165 993.7909460774173 982.0463857287057 1013.4679988861451
          982.4979489082054 879.6210541746094 999.9675751334532 998.9614276853995 942.361804393122 998.3635709655948
          1002.0060214961603 1040.1475471149997 884.0482831442401 914.1057379454703 849.0899258398867 664.161154647412
          702.7250066210356 699.4516498333783 564.6871973247452 937.1210452924212 1109.8142565506264 1027.6639299681124
          691.8388911110266 975.8047890014415 956.3774682047955 844.1887695031417 831.1921154756803 1070.7867920578349
          988.1467688034706 841.3068262946504 923.485473053641 1123.7012372736394 1229.6248408706108 958.2417267888355
          831.1925049299031 1010.5635291019424 997.7281935704502 1003.8603993232904 970.2793618369345 708.1823636993086
          982.2246880690692 1009.231461754378 995.1960645589312 995.2043775448379 1002.9950453093588 986.7159105745883
          1018.242406927252 1000.0217090738697 645.4728199890286 1000.8684887894748 994.9447344088176 954.5603284326265
          1008.8801991640485 1043.7776865849062 881.8771454333124 998.7763857657693 1006.5335490501582 504.1716187775908
          999.9423882533199 961.7665421893597 841.2834209177238 1003.4308508058998 500 778.1637650380349
          1048.3160296964454 804.3565055187632 998.9345675303296 726.8161755133478 826.6798719673885 999.9689935735731
          614.6483978598134 1165.6417086857923 1112.97324538087 960.2427520018612 933.583180984544 952.0322017350782
          673.133037906545 1000.0011080364427 999.3483793322088 953.0679412781072 1061.7271040126718 999.9331305032656
          918.9674084707871 1012.0571714531104 1003.1950142162447 995.2208303497899 1003.0790566115832 998.9723576160302
          844.9924102995435 999.1345951788528 965.3908492783945 1000.0192643483747 1002.6993306133422 1000.6081017451751
          1006.5846972832643 922.109640917127 1009.7134666942827 929.0031485269533 1006.4500827548572 1002.9107882109687
          954.507166709317 1070.2900771722695 1005.2519292350821 986.3970316398062 1001.555133562641 1097.0742039989552
          773.6410592102274 1005.1210199187645 961.7289946843978 910.6267681196776 919.3205501025533 500
          1150.010423936615 513.2147422142295 721.2602349764087 874.7644566609887 678.856118754272 994.4921422987103
          1000.0033386118139 899.628651271371 847.6079416174891 946.6894234135866 961.7156134326858 600.1822972255874
          928.5194107261084 1010.4866593308803 999.9775887536182 1010.2371414632632 954.5095365809648 835.4286770924369
          984.5923558224255 982.0531634744588 885.9056971372819 999.1992372533641 994.7741914021269 999.400934907366
          1034.5363643646206 1112.5475436126483 553.5893225549263 831.2144002578117 1003.1763802349229 1008.2440994619227
          997.0032379411105 982.6667346066033 889.7854258664745 831.4375531335673 999.6896963026253 999.5476157621705
          500 1047.4126276405023 1010.8312449224879 1028.5969465277694 996.1761075142056 1007.1390138614057
          984.8685865352335 593.7541223743106 1000.9297612874144 1028.0331521694707 773.3566433337681 500
          948.2126144659333 793.3209377919283 873.0280584825119 878.7590903967459 942.1015581842537 789.2389722497198
          996.4698322727695 1022.7943573328814 979.8829321264882 959.0947472774567 1000.1028321213889 970.5446868705852
          736.3991583724414 831.7460156892301 976.0779294257514 1037.8096236831004 504.06866501525997 931.7311190845501
          857.0325786686836 930.9739606899568 1139.094747731252 831.9547068774443 990.1286606390519 993.9884828193487
          992.8729620435535 1001.3212136890744 934.3796244179922 982.635078167837 1000.0557878458454 999.7881604139241
          831.5966419750546 966.8554311921816 1036.26629070746 991.5410108290331 1000.2174537187082 686.3516454777155
          824.5743089625706 665.5273868600079 920.7691466688374 980.3092124200911 938.82955928646 999.7169922498522
          737.4171836640269 1000.1297441729557 500 1000.149273356038 801.3577493330351 1061.5877955710778
          831.929999824755 698.5950440677573 960.5213859348245 1060.106598508946 944.4256708859212 806.3104748853686
          768.2116560466899 999.7173406411293 500 1033.3377208268607 761.758841319409 977.0227147234277
          959.9439590927243 1004.0751046473625 999.9808761538326 928.856421723337 1035.667989190703 732.859536250829
          813.2388694033544 884.4162795072016 938.9529583701927 1022.1430493065899 1000.0149156444943 999.7952741992776
          830.9730182197441 1001.603731343962 1036.229555843433 994.2662203807164 998.8186447655543 1000.2878618822184
          830.9217671838563 1196.4782852626433 830.6198579959548 1006.1867300092835 1009.6771200590017 999.7370664723207
          1020.8823128241781 999.298269851543 660.4671715996452 936.4753305519664 1010.6172587985941 1019.9856584077502
          831.7898861379487 1001.2411890342602 831.495830891395 999.0911112878673 938.9590195129539 928.6183096525283
          811.4530758821203 769.0510903188245 906.5311543944573 559.0461531268077 586.1043242588976 771.7278540978357
          909.1066019499434 859.216603203494 831.8362681992731 999.9361665756442 832.1236053948296 995.5244781107009
          951.9802548780647 928.6116217817056 803.1725326110635 999.7438610465172 942.544558103783 999.952364400997
          753.0011851147365 936.6726253832942 1042.6492301412354 1022.4671915265683 963.5823953489257 1000.2799943096991
          831.3363464562359 907.2362533247943 831.152671189422 1032.3540716328223 1087.7854130858186 798.405360874071
          839.8184308942698 711.4244901680604 831.3933052849558 819.0589807874227 952.0165112427314 913.6618355721923
          550.4820114845701 830.9963742056608 817.9625296637248 747.546955565046 773.3334066621575 990.5526874575075
          697.5766096242837 933.4945431518584 995.651112591088 853.2732501254653 792.5293452862844 935.6626451394612
          994.7683461624874 1027.9962477216902 831.9238666854766 736.9786159676926 673.4299787997984 1096.6856569467059
          915.3962465284047 905.7598545785188 798.3315278747232 969.497526090598 950.6948298709085 693.9280704147944
          1038.4230536485677 856.1053779108696 1000.5218566260428 508.5646356327736 871.9782031335668 832.1255549921988
          1181.3858017845791 997.977662477923 1071.4868375877022 973.9570119910205 845.1523205144224 805.49312019099
          803.1391381482375 764.6046866696564 831.3069564552665 723.0774953492675 842.0941350984484 946.7715213506773
          1000.0110372996168 868.9602647785533 611.6272317342618 776.1439756404026 611.6708230796024 917.5340658835545
          1042.602168817183 956.2404756188956 1000.2144099956661 960.5044976071986 959.9765581047803 859.6842468183279
          963.4418265136109 942.328891583591 626.9283419399263 999.8650606622165 999.9412432408568 618.7602828432417
          1000.0629485324909 887.7409199695609 500 817.318869520438 1049.910149100079 584.8124683369723
          999.9590947506957 578.4927609899953 700.8708987817297 610.6957620606541 698.4683659397012 986.0718054883499
          999.9199733697413 614.439838623487 1000.0661364766556 879.7580206989513 507.99130573157146 877.4007504673011
          1000.2097773507843 886.6459621705748 1013.1517588602949 579.6056567962146 935.917040580492 902.5664614564546
          1083.616558509073 910.6678449236774 614.814941131089 822.7209132907415 613.6441815415309 998.0912255262161
          999.6051817703028 975.3432079806979 1175.7033826819911 880.1391101802219 845.1344820039487 724.2494976673261
          983.0516563839265 610.3853456404895 1053.0034895378947 859.5128230647312 1000.7185466278827 1143.1760984509544
          1191.8921073779381 978.7931076483428 765.8734212578128 855.9736774007038 588.9172885843888 500
          728.9208443359196 729.194888342063 1261.6990568689814 878.2634619833167 1006.9685640186412 659.2341986103465
          1073.9955377344695 1237.2624479488456 922.2254552910612 880.2760947854102 880.6990061193289 944.0013497072235
          786.4026859935891 719.6857164477669 762.8892102609568 633.6223571559409 981.7119998612009 856.951396001811
          965.1339407127127 798.7026159275293 728.7209215476148 762.6911506585143 500 942.5804079710774
          907.6182243712946 683.9325721876845 812.0118762618231 977.4798466754511 768.7756904620782 929.422295827829
          655.7756128260813 880.6590466217621
        </DataArray>
        <DataArray type="Float64" Name="pressure" format="ascii" RangeMin="-60000" RangeMax="31403.886824277768">
          -2230.560535934069 -25876.124528022316 -12011.730789314384 2608.7642731368214 -34591.96459242971 -17610.068930182242
          -10144.069946568747 6245.842855336914 -18801.351084235364 -32946.35595889721 21040.593837755703 -57760.77590462693
          -7671.567267813302 -638.8821319423323 -5823.968873733347 -13483.346692856658 -1985.1887638790959 -26787.58922964894
          -11375.11360533309 30017.20624497738 -360.7557892588875 -5445.494511033553 -60000 1623.5992125051052
          -6794.810478149639 5909.607003085284 588.1509610968214 -30457.33683076478 -10567.954261387085 -30742.747565865
          -29894.158489672554 -14032.722445104855 -14659.305601095599 -10832.642970757403 2273.194013631064 -21126.80711533648
          -55758.179768508446 -37492.95632529658 -11186.537535862353 3035.9843323153473 -1014.3235080188106 -847.5399714712103
          -19597.947465701793 -17879.83161788096 -39550.042956911486 -25223.62711528584 -30993.10106465806 -16887.908163096516
          -8387.296434874228 10373.6061122322 -14069.547872412844 -45840.74039333307 -26667.20396992469 -45790.13498029629
          -13949.367927564723 1103.6428512648808 2819.594974843485 -30.79164067478814 -19134.133399612347 -19528.982559461798
          -3925.928117238086 -1756.8158401012806 -29799.83665648896 -36097.06398695953 -1828.9314829871955 85.82761808447685
          -45911.29545137311 -26.50156531885841 9877.753199091921 -45432.85433131689 -48924.094765892136 -5631.305563986152
          -45154.10534835078 59.721462072488976 -32176.36298800292 5171.256831802921 -35354.16189043543 -36097.016194946926
          -3796.7560088545724 87.44687762700323 -47575.09681321595 -28.483630866135172 -2744.464487342666 -45432.85848482061
          -17678.24142398168 24.60401921358425 -14952.569980151678 -2927.712194199762 -60000 -6211.474959994762
          -32493.89139394455 6824.62591454133 -24686.84651232619 -46678.26929123904 -4297.420164272421 -46481.4746889113
          1969.1609385386437 -4486.295204880089 -60000 -11546.730546076233 -6330.228450891477 -20228.682539247235
          208.35972117320125 -9241.03561840745 -16698.339835920233 -12405.591285923314 -21350.048028007695 -29252.366849928883
          -20192.9876075728 -32534.551637179116 -6952.973282950466 -32489.219824741107 -7835.024188066459 -129.13914673133604
          8082.3846266103465 -44653.082858299174 -8427.903736474245 702.4899667849832 -27173.00081692685 -20272.183496883896
          -54573.91092566574 -19098.05791504716 -14935.799974404381 -11210.416239930364 1196.6984140436716 -21293.132810556068
          -27268.487241949228 -2229.0734245585645 -24721.518426005292 -14639.69573585633 -27389.296886000662 -3569.05117533885
          -5502.057942894894 -6159.367999486108 -20240.14644430307 -14608.089227154484 -7169.741522265908 4009.8565090421926
          -8435.983484694694 -35671.471590713925 -25376.997885611014 -25937.47905589937 -7529.426646401257 -20219.470853909537
          -28065.30096625538 -15381.838135614207 -36220.44271624702 5113.582833370838 10.690534094783288 -20227.797482029884
          -22430.513314672957 -20271.04373549781 -6089.652606462896 -1087.4986398540432 -219.06080511498203 4.2040670594951735
          -147.73300327618017 -3013.3094973381503 -7620.596258950395 -1333.5679110382398 -2450.645797909451 -20257.114023328584
          270.3518366242906 -21517.699455043512 -402.0742390964824 -11488.700594377118 -8558.604192183244 -22170.455881926457
          -47921.7477089056 -40793.698164458976 -60000 -19853.103830022388 -9364.385261659532 4445.563339315449
          -16708.772217304064 -20223.336263851845 -4.263937460673333 -20240.390519822613 -668.6897706428181 2435.365562209513
          -8711.8260062117 -21723.231063213712 -29.76610620253723 -7620.490863313985 -4.792382853893287 -60000
          -7051.679260101537 -1763.9925498377715 -1348.1375655927059 8766.864084074523 32.65025770388547 -20220.121265931535
          -3684.1594687071984 -20277.74322202186 -811.205473803052 -8164.654967626175 -80.715192946368 252.3895439595026
          -216.1676585156647 -20270.46765431064 -599.269711540228 4352.65937097126 207.456931996594 716.6255416353442
          -58811.75296536986 -31008.57362387258 11052.978342870483 -49565.553497503744 -52720.82597862472 -7330.822526007005
          348.88010058065447 253.60166051133547 -2579.72096085839 -24635.289468940213 -235.07768997483254 -37480.489257615365
          3473.188508210651 -20245.824423135633 -11787.762131157851 6840.943879278211 -22072.570484009888 -30045.52663150004
          -12063.40705009758 -23034.565994108678 -33.87183693582301 -18857.174556181944 -3682.977909910237 9997.73626564107
          -49.68936531236068 -28610.458693411998 -6266.068642190339 -0.46903862777980976 -31010.49080517802 -32068.964100178106
          -14839.355218130804 -12341.529651131877 -12498.48248129369 -7089.739450756156 2138.3756610370756 0.9493218730267472
          -23.83956203843809 -20278.138649592976 -6638.787718444883 4158.793819085213 -632.3340648848261 -27066.662302975146
          -20679.315177245386 451.21649005429845 1059.7689677886638 -550.7604032224981 -6601.207603787839 -34704.40886090165
          -20731.809168122345 11.015553870383883 9.299468965982669 -745.0864707099254 -2154.4337125553193 1616.1598663374116
          -2100.2461310153467 -14445.473499046871 -3.890983985611456 -124.62867775206178 -6916.583472825355 -196.3714841286219
          240.7225795392378 4817.705653799967 -13914.206022691182 -10307.311446543563 -18109.20889921359 -40300.661442310564
          -35672.999205475724 -36065.802019994604 -52237.53632103058 -7545.474564909459 13177.710786075168 3319.6715961734844
          -36979.333066676816 -2903.4253198270244 -5234.703815424541 -18697.347659623003 -20256.946142918358 8494.415046940185
          -1422.387743583522 -19043.180844641956 -9181.743233563075 14844.148472836732 27554.980904473297 -5010.992785339736
          -20256.89940841163 1267.6234922330923 -272.61677154597237 463.24791879484565 -3566.476579567857 -35018.116356082974
          -2133.0374317116957 1107.7754105253553 -576.4722529282562 -575.4746946194473 359.4054371230595 -1594.090731049405
          2189.0888312702373 2.6050888643658254 -42543.26160131657 104.2186547369738 -606.631870941892 -5452.760588084816
          1065.6238996858156 5253.322390188741 -14174.742548002509 -146.83370810768338 784.0258860189806 -59499.4057466891
          -6.91340960161142 -4588.014937276835 -19045.989489873144 411.70209670797703 -60000 -26620.348195435818
          5797.923563573449 -23477.21933774841 -127.85189636045288 -32782.05893839826 -20798.415363913376 -3.720771171224442
          -46242.192256822396 19877.005042295077 13556.78944570439 -4770.86975977666 -7970.018281854718 -5756.135791790621
          -39224.03545121459 0.13296437312419584 -78.19448013494821 -5631.847046627131 7407.252481520618 -8.024339608127775
          -9723.910983505553 1446.8605743732496 383.401705949359 -573.5003580252078 369.48679338997863 -123.31708607637665
          -18600.91076405478 -103.84857853766334 -4153.098086592659 2.311721804962872 323.9196736010672 72.97220942100921
          790.1636739917149 -9346.843089944763 1165.6160033139258 -8519.622176765606 774.0099305828699 349.2945853162428
          -5459.139994881966 8434.809260672346 630.2315082098539 -1632.3562032232576 186.61602751692044 11648.904479874627
          -27163.07289477272 614.5223902517455 -4592.520637872267 -10724.787825638683 -9681.533987693605 -60000
          18001.25087239381 -58414.23093429246 -33448.771802830954 -15028.265200681359 -38537.265749487364 -660.942924154765
          0.4006334176665405 -12044.561847435474 -18287.047005901302 -6397.269190369607 -4594.126388077702 -47978.12433292952
          -8577.670712866993 1258.3991197056412 -2.689349565816883 1228.456975591589 -5458.855610284227 -19748.558748907566
          -1848.917301308943 -2153.6203830649492 -13691.316343526174 -96.09152959630592 -627.09703174477 -71.88781111607568
          4144.363723754468 13505.705233517792 -53569.28129340884 -20254.271969062596 381.1656281907517 989.2919354307242
          -359.6114470667453 -2079.9918472076024 -13225.74889602306 -20227.493623971917 -37.2364436849648 -54.28610853954069
          -60000 5689.51531686027 1299.7493906985528 3431.633583332332 -458.86709829533174 856.6816633686858
          -1815.769615771983 -48749.50531508273 111.57135448972895 3363.97826033648 -27197.202799947823 -60000
          -6214.486264088009 -24801.48746496861 -15236.632982098567 -14548.909152390488 -6947.813017889557 -25291.32333003362
          -423.620127267659 2735.32287994577 -2414.0481448214177 -4908.630326705197 12.33985456667142 -3534.637575529773
          -31632.100995307028 -20190.478117292383 -2870.648468909826 4537.154841972051 -59511.760198168806 -8192.265709853991
          -17156.090559757962 -8283.124717205183 16691.369727750243 -20165.435174706683 -1184.5607233137753 -721.3820616781504
          -855.2445547735852 158.54564268892773 -7874.4450698409355 -2083.7906198595556 6.6945415014515675 -25.420750329112707
          -20208.402962993452 -3977.348256938203 4351.954884895204 -1015.0787005160282 26.094446244978826 -37637.802542674144
          -21051.082924491526 -40136.71357679905 -9507.702399739515 -2362.894509589073 -7340.452885624795 -33.960930017738065
          -31509.937960316776 15.569300754686992 -60000 17.91280272455424 -23837.07008003578 7390.535468529333
          -20168.400021029403 -36168.594711869126 -4737.433687821062 7212.791821073524 -6668.91949368945 -23242.74301375576
          -27814.601274397213 -33.91912306447921 -60000 4000.526499223288 -28588.939041670914 -2757.274233188673
          -4806.724908873084 489.0125576835044 -2.2948615400900962 -8537.22939319956 4280.158702884373 -32056.855649900517
          -22411.335671597466 -13870.04645913581 -7325.644995576872 2657.1659167907865 1.7898773393153533 -24.567096086684614
          -20283.237813630712 192.44776127543446 4347.546701211959 -688.0535543140331 -141.76262813348785 34.54342586620896
          -20289.38793793724 23577.394231517203 -20325.61704048542 742.4076011140141 1161.254407080205 -31.552023321510205
          2505.877538901377 -84.20761781484543 -40743.93940804258 -7622.960333764031 1274.0710558312912 2398.2790089300215
          -20185.21366344616 148.94268411122084 -20220.500293032597 -109.06664545592321 -7324.917658445534 -8565.802841696604
          -22625.630894145565 -27713.869161741055 -11216.261472665123 -52914.46162478308 -49667.48108893229 -27392.65750825972
          -10907.207766006792 -16894.007615580726 -20179.64781608722 -7.660010922700167 -20145.167352620447 -537.0626267158923
          -5762.36941463224 -8566.60538619533 -23619.29608667238 -30.736674417939867 -6894.653027546046 -5.716271880360182
          -29639.857786231623 -7599.284954004697 5117.9076169482505 2696.0629831881943 -4370.1125581289125 33.59931716388928
          -20239.63842525169 -11131.649601024677 -20261.67945726936 3882.4885959386756 10534.249570298234 -24191.35669511148
          -19221.788292687626 -34629.06117983275 -20232.803365805306 -21712.922305509277 -5758.018650872227 -10360.57973133692
          -53942.15862185159 -20280.435095320703 -21844.496440353025 -30294.36533219448 -27199.991200541102 -1133.6775050990946
          -36290.80684508596 -7980.654821776998 -521.866489069439 -17607.209984944162 -24896.47856564587 -7720.482583264652
          -627.7984605015081 3359.549726602827 -20169.13599774281 -31562.56608387689 -39188.4025440242 11602.278833604705
          -10152.450416591433 -11308.817450577744 -24200.21665503322 -3660.2968691282467 -5916.620415490979 -36728.631550224665
          4610.766437828124 -17267.354650695648 62.62279512513487 -58972.243724067164 -15362.615623971982 -20144.93340093615
          21766.296214149497 -242.68050264924113 8578.420510524265 -3125.1585610775373 -18581.72153826931 -23340.8255770812
          -23623.3034222115 -28247.43759964123 -20243.165225368026 -33230.700558087905 -18948.70378818619 -6387.417437918725
          1.3244759540111772 -15724.7682265736 -46604.73219188858 -26862.72292315169 -46599.501230447706 -9895.91209397346
          5112.260258061951 -5251.142925732524 25.729199479928866 -4739.460287136171 -4802.813027426359 -16837.89038180065
          -4386.980818366696 -6920.533009969076 -44768.59896720884 -16.192720534022556 -7.050811097183214 -45748.766058810994
          7.55382389890201 -13471.089603652694 -60000 -21921.735657547433 5989.217892009483 -49822.503799563325
          -4.908629916512837 -50580.86868120056 -35895.49214619244 -46716.508552721505 -36183.79608723585 -1671.3833413980092
          -9.603195631038943 -46267.219365181554 7.936377198675473 -14429.037516125842 -59041.04331221143 -14711.909943923865
          25.173282094115166 -13602.48453953103 1578.2110632353852 -50447.32118445425 -7689.9551303409635 -11692.02462522545
          10033.98702108876 -10719.85860915871 -46222.20706426932 -21273.490405111024 -46362.698215016295 -229.05293685406377
          -47.37818756366323 -2958.8150423162506 21084.405921838934 -14383.306778373371 -18583.86215952615 -33090.06027992087
          -2033.8012339288252 -46753.75852314126 6360.41874454736 -16858.46123223226 86.22559534592256 17181.13181411453
          23027.052885352576 -2544.8270821988626 -28095.18944906247 -17283.15871191555 -49329.92536987335 -60000
          -32529.49867968965 -32496.61339895244 31403.886824277768 -14608.384562001997 836.2276822369495 -40891.896166758415
          8879.464528136341 28471.493753861476 -9332.945365072661 -14366.868625750772 -14316.119265680527 -6719.838035133175
          -25631.67768076931 -33637.71402626797 -28453.294768685184 -43965.317141287094 -2194.560016655896 -17165.832479782686
          -4183.927114474473 -24155.68608869648 -32553.489414286225 -28477.061920978285 -60000 -6890.35104347071
          -11085.813075444654 -37928.09133747786 -22558.57484858123 -2702.4183989458697 -27746.91714455062 -8469.324500660523
          -41306.92646087024 -14320.914405388554
        </DataArray>
        <DataArray type="Float64" Name="velocity" NumberOfComponents="3" format="ascii" RangeMin="0.0002201777484075914" RangeMax="32.310694917183326">
          -1.236112484223608 0.2703843713537282 8.753080958566597 -4.399293530229146 3.761114391158772 9.168815316937426
          -0.1164925186948616 3.864831263718349 1.3748497522185295 1.1633003682095528 -1.3047356670438819 9.349188062974063
          0.09782496455265988 0.3306625841019428 5.814502384276411 -5.651442113276134 0.24958234435993765 2.5004341833517456
          -6.141652865270152 5.515117226054518 8.604707869692215 0.3378717005394729 0.926480001765548 10.12552743213599
          -1.550810622127602 -1.3465945421914054 8.735127775482788 -2.0472404525320846 -7.267130816758675 10.274484320893587
          -3.932032284975003 -4.99645743092246 7.427705461623656 4.146796327857549 1.2556017076925434 11.721717397588392
          0.2998107346630985 -0.9465866809080836 9.26595587630675 0.3436357302656502 -0.26811943891811824 10.374391362225447
          -0.4235195218609238 -2.064951797460319 8.4715821562174 -1.8155294067025731 2.053911842338924 8.867928162053213
          4.216763604300338 -8.45751335826365 8.65187836309484 -4.231099974572542 -1.0719199665950683 7.114781464679447
          1.5182108906823046 0.8885876480024144 7.433758255721008 -3.1876516639884898 -2.865674687062282 7.172248685503601
          -2.3843016327697506 1.6754090766615755 10.352660357641453 0.07396790687936285 -0.6406941104329598 7.489750994662844
          -1.3602806427258716 1.6941494914030166 8.105990240905882 -1.783379403680056 0.80373136331291 7.581109320003539
          1.6806042956935854 -5.177469479007202 9.493769435414336 3.173615639706906 -1.468583885531923 7.704247703051178
          -4.140926268179271 -7.709919310728603 3.7193980850454196 -8.109470857623975 3.566504988620844 7.489360593822896