<?xml version="1.0"?>
<VTKFile type="PolyData" version="0.1" byte_order="LittleEndian">
  <PolyData>
    <Piece NumberOfPoints="396" NumberOfVerts="396" NumberOfLines="0" NumberOfStrips="0" NumberOfPolys="0">
      <Points>
        <DataArray type="Float64" NumberOfComponents="3" format="ascii">
          0.487555 0.002804 37.865113
          -0.443537 -0.265373 37.757965
          0.636315 0.223243 37.499940
          0.816250 -0.348603 37.533105
          -0.222370 -0.006283 37.394442
          0.591462 0.244226 37.676247
          0.130007 0.325968 37.553115
          -1.042737 0.088696 37.845708
          0.110843 -0.475878 37.803567
          0.263621 -0.171930 37.340848
          -0.241603 -0.249697 37.648140
          0.000368 0.052624 37.046304
          0.464358 0.231439 37.777117
          0.047683 0.355527 37.823917
          0.189510 0.108009 37.613354
          -0.290846 0.213588 37.408413
          -0.422829 0.113685 37.540502
          0.784444 0.286730 37.497226
          0.464370 -0.231436 37.777119
          0.047665 -0.355511 37.823939
          0.189507 -0.107997 37.613364
          -0.290844 -0.213591 37.408411
          -0.422812 -0.113682 37.540513
          0.784454 -0.286737 37.497234
          0.130009 -0.325961 37.553114
          -1.042733 -0.088705 37.845712
          0.110848 0.475861 37.803562
          0.263615 0.171929 37.340838
          -0.241602 0.249698 37.648143
          0.000367 -0.052562 37.046300
          0.487596 -0.002801 37.865116
          -0.443553 0.265380 37.757966
          0.636347 -0.223279 37.499939
          0.816227 0.348586 37.533080
          -0.222373 0.006288 37.394440
          0.591561 -0.244223 37.676234
          0.868632 0.007753 37.523848
          -0.561671 -0.183768 37.687063
          -0.568456 -0.076645 37.090896
          -0.874061 -0.120612 37.821330
          -0.955771 -0.192864 37.596149
          0.148567 0.243087 37.864493
          -0.987427 -0.319339 37.597415
          -0.591631 0.176364 37.787178
          0.641679 -0.181027 37.807760
          0.959584 0.237699 37.735793
          -0.042430 0.609788 37.055851
          -0.571864 -0.252646 37.370472
          -0.940765 0.049074 37.954971
          0.671273 -0.103294 37.948010
          -0.721448 0.300333 37.323593
          -0.801147 -0.302579 37.383744
          0.659600 -0.041468 37.029796
          -0.673101 -0.057055 37.933840
          -0.940763 -0.049082 37.954969
          0.671273 0.103313 37.948000
          -0.721454 -0.300329 37.323595
          -0.801126 0.302597 37.383718
          0.659601 0.041472 37.029802
          -0.673101 0.057057 37.933840
          -0.987440 0.319329 37.597420
          -0.591626 -0.176368 37.787173
          0.641707 0.181039 37.807764
          0.959580 -0.237702 37.735795
          -0.042436 -0.609794 37.055848
          -0.571854 0.252636 37.370461
          0.868648 -0.007740 37.523854
          -0.561772 0.183773 37.687087
          -0.568455 0.076644 37.090891
          -0.874050 0.120601 37.821322
          -0.955782 0.192863 37.596159
          0.148572 -0.243089 37.864478
          4.109397 2.805509 44.859380
          -0.555769 -0.177692 37.831312
          0.595745 -0.275568 37.363856
          0.609793 0.133811 37.411702
          -0.586936 0.063235 37.053788
          4.125531 2.820247 30.181182
          -0.453505 -0.076913 37.204448
          -0.808613 0.165636 37.628754
          0.297569 0.160201 37.309185
          -0.401514 0.222693 37.730702
          -0.758511 0.213240 37.241242
          -0.941418 0.275988 37.628442
          0.663724 -0.264010 37.306367
          0.316451 -0.077326 37.481280
          0.245856 -0.027317 37.762786
          0.283231 0.129118 37.804804
          0.507047 -0.144902 37.194651
          0.681135 0.054853 37.022761
          0.663714 0.263991 37.306344
          0.316465 0.077334 37.481293
          0.245867 0.027307 37.762777
          0.283216 -0.129102 37.804812
          0.507046 0.144907 37.194652
          0.681135 -0.054856 37.022765
          -0.453502 0.076920 37.204453
          -0.808605 -0.165632 37.628757
          0.297565 -0.160209 37.309192
          -0.401528 -0.222691 37.730690
          -0.758509 -0.213240 37.241254
          -0.941410 -0.275981 37.628449
          4.117232 -2.796945 44.844382
          -0.555765 0.177696 37.831315
          0.595771 0.275605 37.363888
          0.609790 -0.133821 37.411707
          -0.586935 -0.063241 37.053796
          4.112199 -2.827743 30.172161
          0.119168 -0.482432 37.326256
          -0.943766 0.126454 37.871579
          -0.432758 -0.096453 37.723722
          -0.587351 0.006772 36.997703
          -0.886976 -0.178221 37.736387
          -0.089320 -0.371323 37.557502
          -0.983601 0.297828 37.551389
          -1.007243 0.175077 37.762622
          -0.163525 -0.107217 37.249064
          -0.069828 -0.378167 37.459890
          -0.197065 0.276667 37.266290
          -0.640326 -0.269101 37.305640
          -0.688336 -0.118149 37.940151
          -0.433044 -0.262927 37.701220
          -0.662022 0.281742 37.327844
          -0.602948 -0.095514 37.285584
          -0.939979 -0.024181 37.920394
          -1.046410 0.172673 37.578418
          -0.688334 0.118134 37.940155
          -0.433045 0.262928 37.701204
          -0.662005 -0.281742 37.327887
          -0.602954 0.095523 37.285585
          -0.939981 0.024174 37.920394
          -1.046403 -0.172663 37.578414
          -0.983586 -0.297860 37.551380
          -1.007235 -0.175062 37.762638
          -0.163526 0.107218 37.249061
          -0.069832 0.378160 37.459894
          -0.197061 -0.276666 37.266288
          -0.640333 0.269107 37.305647
          0.119165 0.482435 37.326260
          -0.943750 -0.126438 37.871596
          -0.432747 0.096435 37.723724
          -0.587349 -0.006766 36.997703
          -0.886987 0.178225 37.736386
          -0.089311 0.371324 37.557525
          4.086148 2.820828 44.890365
          -0.008706 0.406228 37.702345
          -0.108325 -0.587460 37.158594
          -0.065368 -0.547635 37.933145
          0.052443 0.506360 37.046462
          4.070094 2.803987 30.169358
          0.196273 0.256266 37.415472
          0.995698 -0.252521 37.554630
          0.045953 0.069043 37.072918
          -0.006323 -0.158072 37.562126
          0.939535 0.101591 37.546919
          0.263418 0.222858 37.300286
          -0.055524 -0.568486 37.075892
          -0.003317 0.022285 37.891857
          -0.103463 0.592993 37.843542
          0.111420 0.603323 37.098542
          0.235388 0.132351 37.868471
          0.040747 -0.531267 37.892806
          -0.055514 0.568490 37.075902
          -0.003183 -0.022350 37.891867
          -0.103463 -0.592992 37.843541
          0.111417 -0.603328 37.098545
          0.235385 -0.132341 37.868475
          0.040747 0.531268 37.892806
          0.196267 -0.256266 37.415459
          0.995703 0.252519 37.554631
          0.045957 -0.069044 37.072921
          -0.006323 0.158074 37.562132
          0.939529 -0.101596 37.546919
          0.263415 -0.222857 37.300282
          4.078312 -2.829392 44.905364
          -0.008711 -0.406224 37.702350
          -0.108331 0.587460 37.158603
          -0.065367 0.547638 37.933143
          0.052457 -0.506360 37.046471
          4.083426 -2.796491 30.178379
          -0.000000 3.232782 43.723725
          -0.000001 -0.073425 37.134848
          -0.000013 -0.341662 37.720999
          0.000002 -0.174784 37.313449
          0.000003 -0.330076 37.109362
          0.000000 3.232781 31.326425
          -0.000000 -1.033388 35.760138
          -0.000011 0.086489 36.954680
          0.000001 -0.448592 37.335753
          0.000002 -0.212931 37.361806
          -0.000010 -0.060067 37.780889
          0.000000 0.044821 39.313462
          0.000003 0.529308 37.262393
          0.000003 -0.387413 37.168308
          0.000003 -0.063695 37.893031
          0.000001 0.387161 37.492137
          -0.000009 -0.582105 37.792652
          -0.000039 0.494301 37.787918
          -0.000007 -0.529300 37.262389
          -0.000002 0.387412 37.168305
          -0.000005 0.063735 37.893029
          0.000000 -0.387181 37.492148
          0.000022 0.582103 37.792654
          0.000018 -0.494307 37.787916
          0.000000 1.033387 35.760138
          0.000011 -0.086609 36.954730
          -0.000000 0.448576 37.335740
          -0.000002 0.212923 37.361789
          0.000007 0.060071 37.780888
          0.000000 -0.044821 39.313462
          -0.000000 -3.232782 43.723725
          0.000003 0.073429 37.134859
          0.000010 0.341660 37.720999
          -0.000001 0.174778 37.313436
          -0.000002 0.330083 37.109334
          -0.000000 -3.232781 31.326425
          -4.086925 2.814698 44.881802
          0.008712 0.406227 37.702350
          0.108325 -0.587461 37.158593
          0.065369 -0.547635 37.933143
          -0.052446 0.506359 37.046463
          -4.071050 2.803253 30.170111
          -0.196273 0.256264 37.415470
          -0.995695 -0.252522 37.554629
          -0.045955 0.069044 37.072916
          0.006323 -0.158070 37.562124
          -0.939537 0.101591 37.546920
          -0.263418 0.222857 37.300286
          0.055523 -0.568486 37.075892
          0.003246 0.022327 37.891867
          0.103465 0.592991 37.843540
          -0.111420 0.603324 37.098543
          -0.235387 0.132346 37.868478
          -0.040746 -0.531266 37.892806
          0.055514 0.568490 37.075903
          0.003249 -0.022309 37.891860
          0.103464 -0.592993 37.843540
          -0.111416 -0.603326 37.098542
          -0.235387 -0.132345 37.868472
          -0.040743 0.531268 37.892807
          -0.196268 -0.256266 37.415463
          -0.995704 0.252517 37.554631
          -0.045955 -0.069043 37.072925
          0.006324 0.158079 37.562123
          -0.939528 -0.101597 37.546919
          -0.263416 -0.222856 37.300285
          -4.104569 -2.839191 44.906681
          0.008711 -0.406226 37.702344
          0.108331 0.587460 37.158604
          0.065368 0.547635 37.933146
          -0.052457 -0.506361 37.046472
          -4.082922 -2.811820 30.169889
          -0.119165 -0.482434 37.326258
          0.943763 0.126453 37.871583
          0.432755 -0.096450 37.723724
          0.587351 0.006771 36.997703
          0.886972 -0.178222 37.736382
          0.089317 -0.371326 37.557537
          0.983597 0.297833 37.551386
          1.007240 0.175075 37.762625
          0.163523 -0.107216 37.249057
          0.069828 -0.378165 37.459895
          0.197065 0.276667 37.266288
          0.640328 -0.269101 37.305642
          0.688337 -0.118148 37.940151
          0.433045 -0.262927 37.701221
          0.662016 0.281743 37.327852
          0.602948 -0.095515 37.285584
          0.939979 -0.024186 37.920395
          1.046408 0.172672 37.578418
          0.688332 0.118135 37.940155
          0.433045 0.262927 37.701203
          0.662010 -0.281740 37.327878
          0.602955 0.095521 37.285583
          0.939981 0.024173 37.920394
          1.046405 -0.172664 37.578415
          0.983589 -0.297856 37.551383
          1.007237 -0.175064 37.762635
          0.163527 0.107220 37.249065
          0.069830 0.378165 37.459890
          0.197062 -0.276665 37.266289
          0.640331 0.269108 37.305647
          -0.119165 0.482435 37.326258
          0.943753 -0.126439 37.871593
          0.432750 0.096438 37.723722
          0.587349 -0.006767 36.997703
          0.886992 0.178225 37.736391
          0.089334 0.371315 37.557503
          -4.108619 2.811639 44.867944
          0.555767 -0.177698 37.831310
          -0.595741 -0.275562 37.363851
          -0.609793 0.133810 37.411701
          0.586936 0.063232 37.053785
          -4.124575 2.820981 30.180429
          0.453505 -0.076914 37.204449
          0.808613 0.165636 37.628756
          -0.297566 0.160203 37.309183
          0.401524 0.222693 37.730709
          0.758511 0.213242 37.241246
          0.941412 0.275989 37.628440
          -0.663724 -0.264012 37.306369
          -0.316454 -0.077327 37.481285
          -0.245869 -0.027315 37.762781
          -0.283221 0.129107 37.804817
          -0.507047 -0.144900 37.194649
          -0.681134 0.054851 37.022759
          -0.663713 0.263990 37.306344
          -0.316467 0.077335 37.481288
          -0.245856 0.027317 37.762790
          -0.283227 -0.129111 37.804803
          -0.507046 0.144909 37.194653
          -0.681135 -0.054856 37.022764
          0.453503 0.076920 37.204454
          0.808605 -0.165633 37.628756
          -0.297566 -0.160207 37.309191
          0.401530 -0.222693 37.730680
          0.758509 -0.213239 37.241251
          0.941415 -0.275981 37.628449
          -4.090976 -2.787146 44.843065
          0.555767 0.177691 37.831317
          -0.595776 0.275611 37.363892
          -0.609790 -0.133821 37.411707
          0.586934 -0.063242 37.053797
          -4.112703 -2.812413 30.180651
          -0.868635 0.007753 37.523846
          0.561684 -0.183768 37.687066
          0.568456 -0.076644 37.090894
          0.874062 -0.120614 37.821328
          0.955775 -0.192868 37.596149
          -0.148570 0.243083 37.864488
          0.987430 -0.319338 37.597417
          0.591629 0.176364 37.787176
          -0.641694 -0.181033 37.807763
          -0.959584 0.237700 37.735793
          0.042432 0.609791 37.055853
          0.571865 -0.252644 37.370472
          0.940765 0.049074 37.954971
          -0.671274 -0.103296 37.948011
          0.721449 0.300332 37.323593
          0.801145 -0.302580 37.383743
          -0.659600 -0.041467 37.029795
          0.673102 -0.057058 37.933839
          0.940764 -0.049084 37.954969
          -0.671273 0.103314 37.947999
          0.721453 -0.300330 37.323595
          0.801128 0.302596 37.383718
          -0.659601 0.041472 37.029803
          0.673100 0.057056 37.933841
          0.987438 0.319331 37.597419
          0.591628 -0.176368 37.787175
          -0.641692 0.181033 37.807761
          -0.959579 -0.237703 37.735794
          0.042435 -0.609792 37.055847
          0.571852 0.252638 37.370461
          -0.868646 -0.007742 37.523857
          0.561762 0.183774 37.687085
          0.568456 0.076645 37.090892
          0.874050 0.120599 37.821326
          0.955776 0.192859 37.596159
          -0.148571 -0.243088 37.864481
          -0.487566 0.002806 37.865118
          0.443538 -0.265374 37.757959
          -0.636311 0.223236 37.499952
          -0.816255 -0.348607 37.533110
          0.222372 -0.006283 37.394441
          -0.591447 0.244227 37.676251
          -0.130014 0.325974 37.553111
          1.042736 0.088699 37.845709
          -0.110842 -0.475870 37.803564
          -0.263616 -0.171931 37.340844
          0.241604 -0.249698 37.648137
          -0.000366 0.052632 37.046303
          -0.464360 0.231440 37.777114
          -0.047681 0.355519 37.823922
          -0.189513 0.107998 37.613353
          0.290847 0.213587 37.408413
          0.422827 0.113686 37.540510
          -0.784440 0.286730 37.497226
          -0.464369 -0.231436 37.777119
          -0.047671 -0.355514 37.823933
          -0.189511 -0.107992 37.613360
          0.290844 -0.213590 37.408413
          0.422803 -0.113677 37.540511
          -0.784457 -0.286737 37.497234
          -0.130007 -0.325957 37.553116
          1.042734 -0.088702 37.845712
          -0.110841 0.475884 37.803569
          -0.263619 0.171928 37.340842
          0.241601 0.249699 37.648146
          -0.000369 -0.052559 37.046300
          -0.487584 -0.002800 37.865112
          0.443549 0.265380 37.757970
          -0.636350 -0.223287 37.499929
          -0.816222 0.348583 37.533074
          0.222371 0.006288 37.394442
          -0.591577 -0.244222 37.676229
        </DataArray>
      </Points>
      <PointData Scalars="density">
        <DataArray type="Float64" Name="density" format="ascii">
          1131.078889
          918.034450
          990.794124
          792.880713
          1054.006261
          915.244068
          1086.067928
          855.810417
          994.120421
          990.902040
          955.672769
          1051.049644
          1020.935287
          1102.024113
          1019.260504
          967.526525
          977.136906
          1014.421367
          1020.925816
          1101.993993
          1019.265124
          967.521504
          977.147027
          1014.448639
          1086.062276
          855.803254
          994.123252
          990.904440
          955.657942
          1051.080030
          1131.098073
          918.038596
          990.814810
          792.886915
          1054.007050
          915.222808
          851.992530
          1029.784499
          1052.803257
          1139.469696
          1087.569057
          830.065268
          848.204939
          1064.137082
          1004.090842
          990.523041
          908.472695
          977.535276
          894.145410
          903.261734
          890.423441
          894.878518
          917.886584
          976.655653
          894.156121
          903.262652
          890.418616
          894.808806
          917.897284
          976.652103
          848.195538
          1064.121363
          1004.045040
          990.523722
          908.451933
          977.554677
          852.013709
          1029.751665
          1052.803555
          1139.487054
          1087.559653
          830.109233
          500.000000
          1033.034002
          971.143894
          976.574269
          1035.807326
          500.000000
          989.492137
          1097.123641
          946.805463
          1030.607779
          779.190958
          1014.437796
          966.786137
          1005.421317
          1094.607952
          981.826971
          1009.416337
          866.295159
          966.812784
          1005.413753
          1094.612540
          981.831602
          1009.415658
          866.294755
          989.491349
          1097.139615
          946.805165
          1030.609187
          779.199320
          1014.482072
          500.000000
          1033.042126
          971.112932
          976.582745
          1035.807144
          500.000000
          779.089913
          960.174452
          1199.798070
          932.703799
          1132.744549
          1095.993081
          835.189542
          951.775444
          1002.037038
          1097.343702
          870.487639
          956.655407
          891.159061
          937.141666
          955.303231
          1075.822722
          998.097766
          852.070689
          891.177246
          937.148016
          955.325794
          1075.827843
          998.093526
          852.051303
          835.163395
          951.777955
          1002.054064
          1097.338439
          870.487116
          956.667433
          779.090593
          960.200836
          1199.822473
          932.703351
          1132.727321
          1096.001569
          500.000000
          1236.513318
          817.422063
          829.169949
          884.538225
          500.000000
          1055.222940
          926.190549
          1064.253823
          1005.496075
          986.880430
          859.012908
          934.023595
          988.979646
          790.840593
          787.179968
          868.066226
          942.568001
          934.047371
          988.942356
          790.837095
          787.179339
          868.076114
          942.567667
          1055.221611
          926.175189
          1064.236024
          1005.494927
          986.893033
          859.003156
          500.000000
          1236.519703
          817.403929
          829.171746
          884.536182
          500.000000
          500.000000
          1130.571720
          1245.047544
          1109.205765
          849.749349
          500.000000
          500.000000
          751.421171
          1017.281899
          1167.034723
          1113.448408
          500.000000
          986.668392
          985.303495
          973.982667
          1123.012744
          1001.954027
          1177.574308
          986.685219
          985.300284
          973.954934
          1122.984550
          1001.959653
          1177.570317
          500.000000
          751.399768
          1017.312942
          1167.023247
          1113.436986
          500.000000
          500.000000
          1130.593668
          1245.044369
          1109.213753
          849.707191
          500.000000
          500.000000
          1236.515893
          817.419585
          829.173051
          884.535705
          500.000000
          1055.216011
          926.190348
          1064.248983
          1005.493862
          986.881164
          859.012443
          934.026554
          988.945133
          790.837603
          787.178432
          868.064459
          942.568391
          934.046195
          988.971338
          790.838262
          787.182653
          868.086167
          942.567053
          1055.222849
          926.177122
          1064.241088
          1005.501963
          986.893423
          859.008736
          500.000000
          1236.515580
          817.404630
          829.166826
          884.540216
          500.000000
          779.093997
          960.176930
          1199.801362
          932.704146
          1132.743351
          1095.997150
          835.183864
          951.776051
          1002.038525
          1097.343797
          870.486021
          956.656910
          891.160213
          937.144385
          955.309005
          1075.821550
          998.093936
          852.068100
          891.175746
          937.151892
          955.320038
          1075.828242
          998.094601
          852.054661
          835.169236
          951.777218
          1002.050453
          1097.340169
          870.487758
          956.665850
          779.088373
          960.198400
          1199.817113
          932.703257
          1132.727113
          1095.984232
          500.000000
          1033.030137
          971.155534
          976.574387
          1035.805370
          500.000000
          989.490219
          1097.126170
          946.803607
          1030.616370
          779.195825
          1014.443918
          966.783897
          1005.422568
          1094.621632
          981.817672
          1009.416944
          866.296460
          966.813945
          1005.412465
          1094.609591
          981.848187
          1009.415114
          866.293329
          989.491473
          1097.136776
          946.805896
          1030.607708
          779.194860
          1014.475893
          500.000000
          1033.046322
          971.105018
          976.587407
          1035.809607
          500.000000
          851.988046
          1029.784824
          1052.804480
          1139.465154
          1087.561434
          830.081510
          848.203891
          1064.134945
          1004.063380
          990.521728
          908.469033
          977.535346
          894.148167
          903.254928
          890.424380
          894.874057
          917.882849
          976.656743
          894.151012
          903.264543
          890.416706
          894.814231
          917.900941
          976.650353
          848.192311
          1064.123398
          1004.072042
          990.522732
          908.453702
          977.551758
          852.021426
          1029.750013
          1052.804310
          1139.487917
          1087.566516
          830.096756
          1131.076435
          918.035324
          990.787489
          792.875416
          1054.004652
          915.253788
          1086.034563
          855.808293
          994.129425
          990.903009
          955.664117
          1051.043401
          1020.935816
          1102.006791
          1019.250857
          967.529909
          977.143455
          1014.414274
          1020.923611
          1101.999542
          1019.265469
          967.518270
          977.148247
          1014.456364
          1086.073342
          855.805196
          994.115217
          990.905051
          955.678012
          1051.082021
          1131.100560
          918.034581
          990.821277
          792.892080
          1054.004313
          915.212769
        </DataArray>
        <DataArray type="Float64" Name="pressure" format="ascii">
          3932.366658
          -2458.966489
          -276.176292
          -6213.578625
          1620.187818
          -2542.677949
          2582.037826
          -4325.687501
          -176.387361
          -272.938801
          -1329.816926
          1531.489308
          628.058599
          3060.723378
          577.815121
          -974.204236
          -685.892820
          432.641003
          627.774478
          3059.819775
          577.953716
          -974.354886
          -685.589187
          433.459183
          2581.868266
          -4325.902381
          -176.302436
          -272.866799
          -1330.261725
          1532.400896
          3932.942189
          -2458.842107
          -275.555686
          -6213.392563
          1620.211490
          -2543.315746
          -4440.224087
          893.534970
          1584.097710
          4184.090885
          2627.071709
          -5098.041971
          -4553.851824
          1924.112451
          122.725268
          -284.308766
          -2745.819149
          -673.941708
          -3175.637696
          -2902.147976
          -3287.296775
          -3153.644474
          -2463.402471
          -700.330410
          -3175.316367
          -2902.120447
          -3287.441520
          -3155.735835
          -2463.081484
          -700.436911
          -4554.133854
          1923.640880
          121.351191
          -284.288334
          -2746.442022
          -673.359703
          -4439.588734
          892.549941
          1584.106644
          4184.611614
          2626.789587
          -5096.723014
          -15000.000000
          991.020045
          -865.683194
          -702.771917
          1074.219781
          -15000.000000
          -315.235881
          2913.709218
          -1595.836101
          918.233379
          -6624.271260
          433.133879
          -996.415898
          162.639505
          2838.238560
          -545.190884
          282.490112
          -4011.145224
          -995.616466
          162.412585
          2838.376213
          -545.051947
          282.469750
          -4011.157351
          -315.259531
          2914.188464
          -1595.845052
          918.275609
          -6624.020396
          434.462159
          -15000.000000
          991.263769
          -866.612033
          -702.517650
          1074.214322
          -15000.000000
          -6627.302598
          -1194.766426
          5993.942088
          -2018.886026
          3982.336457
          2879.792438
          -4944.313728
          -1446.736678
          61.111142
          2920.311046
          -3885.370842
          -1300.337790
          -3265.228181
          -1885.750019
          -1340.903061
          2274.681657
          -57.067012
          -4437.879320
          -3264.682618
          -1885.559525
          -1340.226172
          2274.835291
          -57.194207
          -4438.460922
          -4945.098151
          -1446.661346
          61.621928
          2920.153169
          -3885.386528
          -1299.977017
          -6627.282201
          -1193.974922
          5994.674192
          -2018.899479
          3981.819632
          2880.047057
          -15000.000000
          7095.399526
          -5477.338097
          -5124.901538
          -3463.853235
          -15000.000000
          1656.688199
          -2214.283528
          1927.614695
          164.882237
          -393.587092
          -4229.612766
          -1979.292156
          -330.610619
          -6274.782211
          -6384.600946
          -3958.013222
          -1722.959962
          -1978.578884
          -331.729318
          -6274.887146
          -6384.619825
          -3957.716589
          -1722.970004
          1656.648329
          -2214.744316
          1927.080706
          164.847820
          -393.209022
          -4229.905333
          -15000.000000
          7095.591094
          -5477.882133
          -5124.847607
          -3463.914552
          -15000.000000
          -15000.000000
          3917.151596
          7351.426312
          3276.172954
          -4507.519523
          -15000.000000
          -15000.000000
          -7457.364859
          518.456969
          5011.041698
          3403.452251
          -15000.000000
          -399.948248
          -440.895154
          -780.519993
          3690.382311
          58.620795
          5327.229243
          -399.443436
          -440.991483
          -781.351971
          3689.536496
          58.789589
          5327.109521
          -15000.000000
          -7458.006969
          519.388257
          5010.697402
          3403.109576
          -15000.000000
          -15000.000000
          3917.810028
          7351.331084
          3276.412596
          -4508.784259
          -15000.000000
          -15000.000000
          7095.476787
          -5477.412460
          -5124.808477
          -3463.928851
          -15000.000000
          1656.480330
          -2214.289570
          1927.469497
          164.815873
          -393.565085
          -4229.626703
          -1979.203373
          -331.646010
          -6274.871917
          -6384.647038
          -3958.066230
          -1722.948273
          -1978.614135
          -330.859853
          -6274.852145
          -6384.520399
          -3957.414999
          -1722.988400
          1656.685475
          -2214.686339
          1927.232630
          165.058894
          -393.197304
          -4229.737914
          -15000.000000
          7095.467396