<?xml version="1.0"?>
<VTKFile type="PolyData" version="0.1" byte_order="LittleEndian">
  <PolyData>
    <Piece NumberOfPoints="686" NumberOfVerts="686" NumberOfLines="0" NumberOfStrips="0" NumberOfPolys="0">
      <Points>
        <DataArray type="Float64" NumberOfComponents="3" format="ascii">
          -0.855995 -0.305822 48.144931
          -1.007623 -0.495659 48.434125
          -0.936861 -0.490893 48.443171
          -0.919623 -0.458525 48.426611
          -0.936174 -0.490646 48.413718
          -1.005024 -0.500054 48.441337
          -0.801258 -0.320572 48.732514
          -1.016462 -0.057982 47.954373
          -0.718964 -0.344369 48.125316
          -0.877480 -0.232098 48.736067
          -0.752995 -0.406241 48.359544
          -0.738149 -0.365691 48.288377
          -0.791370 -0.257065 48.604764
          -0.960775 0.001779 48.843142
          -0.946562 -0.089551 47.972344
          -0.758792 0.156219 48.116587
          -0.143355 -0.224486 48.260529
          -1.548236 -0.059930 48.460271
          -0.331416 -0.129079 48.745287
          -0.871850 0.232738 48.668419
          -0.972392 -0.085877 48.870841
          -1.029728 -0.050000 47.983288
          -0.791499 -0.050000 48.167138
          -1.547454 -0.050000 48.405395
          -0.135684 -0.049997 48.191783
          -1.547163 -0.050000 48.392109
          -0.826362 -0.050000 48.739881
          -0.993270 -0.050000 48.884595
          -0.946562 -0.010449 47.972344
          -0.758792 -0.256218 48.116587
          -0.143355 0.124485 48.260528
          -1.548236 -0.040070 48.460271
          -0.331415 0.029079 48.745287
          -0.871850 -0.332738 48.668420
          -0.972392 -0.014123 48.870841
          -1.016462 -0.042018 47.954373
          -0.718964 0.244369 48.125316
          -0.877480 0.132098 48.736068
          -0.752994 0.306241 48.359544
          -0.738149 0.265691 48.288377
          -0.791370 0.157065 48.604764
          -0.960775 -0.101779 48.843142
          -0.855995 0.205821 48.144930
          -1.007623 0.395659 48.434125
          -0.936861 0.390893 48.443171
          -0.919623 0.358525 48.426610
          -0.936174 0.390646 48.413718
          -1.005024 0.400054 48.441337
          -0.801258 0.220572 48.732514
          -0.261390 -0.620611 47.862737
          -0.834706 -0.380150 48.391016
          -1.838958 -1.289721 48.443663
          -0.360541 -0.304817 48.492054
          -1.838943 -1.289855 48.414211
          -0.688760 -0.255108 48.484773
          -0.187747 -0.574168 48.963750
          -0.863541 -0.155373 48.126896
          -1.026947 -0.652183 47.828587
          -0.451498 -0.304398 48.325940
          -0.569530 -0.275394 48.412874
          -0.410624 -0.210855 48.626227
          -0.955468 -0.714672 49.064165
          -0.736433 -0.155712 48.703616
          -1.838963 -0.035452 47.188730
          -0.459020 -0.330335 48.311622
          -3.158174 -0.024760 48.452812
          -1.831362 -1.240358 48.427588
          -3.146295 -0.022044 48.403061
          -0.425366 -0.220662 48.620458
          -1.838936 -0.035145 49.668304
          -0.349273 -0.050000 48.019764
          -0.578107 -0.050000 48.155264
          -1.831416 -0.050000 47.237916
          -3.159296 -0.050000 48.425185
          -1.831310 -0.050000 49.618636
          -0.763026 -0.050000 48.649902
          -0.167487 -0.050000 48.794458
          -1.838963 -0.064548 47.188730
          -0.459021 0.230335 48.311623
          -3.158174 -0.075240 48.452812
          -1.831362 1.140358 48.427588
          -3.146295 -0.077956 48.403061
          -0.425365 0.120662 48.620458
          -1.838936 -0.064855 49.668304
          -0.863541 0.055373 48.126896
          -1.026947 0.552183 47.828587
          -0.451497 0.204398 48.325940
          -0.569530 0.175394 48.412875
          -0.410625 0.110855 48.626227
          -0.955468 0.614672 49.064165
          -0.736432 0.055712 48.703616
          -0.261390 0.520611 47.862737
          -0.834706 0.280150 48.391016
          -1.838958 1.189721 48.443663
          -0.360541 0.204816 48.492054
          -1.838943 1.189855 48.414211
          -0.688760 0.155108 48.484773
          -0.187747 0.474168 48.963750
          -0.200113 -0.350957 48.103952
          -0.600128 -0.219557 48.538337
          -0.734926 -0.180398 48.121518
          -1.182490 -2.189670 48.421658
          -0.762771 -0.313223 48.774423
          -0.644693 -0.242457 48.432420
          -0.291728 -0.227345 48.622155
          -0.570695 -0.040072 48.184025
          -0.870141 -0.854364 47.612346
          -0.224451 -0.328453 48.268807
          -0.770193 -0.323366 48.413070
          -0.297996 -0.371116 48.596898
          -0.876999 -0.802546 49.180169
          -0.592055 0.033201 48.594814
          -0.811917 -0.283256 48.270524
          -0.227227 -0.325671 48.135089
          -0.128765 -0.271415 48.420367
          -0.424268 -0.155339 48.458182
          -0.057246 -0.132246 48.635083
          -0.203380 -0.340398 48.685765
          -0.719203 -0.209989 48.435207
          -1.170941 -0.050868 46.300746
          -0.924946 -0.050000 48.086969
          -0.343045 -0.050000 48.511878
          -0.783498 -0.050000 48.226844
          -0.133288 -0.050001 48.503432
          -0.917724 -0.050000 48.749567
          -1.170176 -0.048054 50.559797
          -0.811917 0.183256 48.270524
          -0.227227 0.225672 48.135088
          -0.128767 0.171415 48.420368
          -0.424268 0.055339 48.458182
          -0.057245 0.032246 48.635082
          -0.203380 0.240398 48.685765
          -0.719203 0.109988 48.435207
          -0.570695 -0.059928 48.184025
          -0.870141 0.754364 47.612346
          -0.224449 0.228454 48.268807
          -0.770193 0.223367 48.413070
          -0.297995 0.271116 48.596899
          -0.876999 0.702546 49.180169
          -0.592055 -0.133201 48.594813
          -0.200113 0.250957 48.103951
          -0.600128 0.119557 48.538337
          -0.734926 0.080398 48.121518
          -1.182489 2.089671 48.421658
          -0.762771 0.213223 48.774423
          -0.644693 0.142456 48.432420
          -0.291735 0.127340 48.622150
          -0.034137 -0.401139 48.090840
          -1.106238 -0.616107 47.880684
          -1.194770 -2.181791 48.427826
          -0.269920 -0.408603 48.438499
          -1.189424 -2.197415 48.426750
          -0.945746 -0.608147 49.041525
          -0.105030 -0.294631 48.664948
          -1.019321 -0.634860 47.873138
          -0.165116 -0.681564 47.808801
          -0.128497 -0.998597 47.498937
          -0.258231 -0.146051 48.499457
          -0.129105 -0.996330 49.353612
          -0.246418 -0.581579 48.968312
          -0.946730 -0.698723 49.014969
          -1.208042 -0.056955 46.277766
          -0.123575 -0.980762 47.480801
          -0.873528 -0.830455 47.624134
          -0.093851 -1.061934 48.428536
          -0.970702 -0.816038 49.193514
          -0.133551 -0.973824 49.375751
          -1.201588 -0.048036 50.576431
          -0.373734 -0.050000 47.981994
          -0.096903 -0.050005 48.185534
          -0.087097 -0.050000 47.418652
          -0.764720 -0.050000 48.719488
          -0.094946 -0.050000 49.440594
          -0.229565 -0.050000 48.837889
          -0.151309 -0.050001 48.772850
          -1.203098 -0.043869 46.282393
          -0.123575 0.880762 47.480801
          -0.873528 0.730455 47.624134
          -0.093851 0.961934 48.428536
          -0.970702 0.716038 49.193514
          -0.133551 0.873824 49.375751
          -1.200793 -0.055280 50.574771
          -1.019321 0.534860 47.873138
          -0.165116 0.581564 47.808801
          -0.128497 0.898597 47.498937
          -0.258231 0.046049 48.499458
          -0.129105 0.896330 49.353612
          -0.246418 0.481579 48.968312
          -0.946730 0.598724 49.014969
          -0.034139 0.301138 48.090840
          -1.106238 0.516107 47.880684
          -1.194770 2.081791 48.427826
          -0.269917 0.308601 48.438498
          -1.189424 2.097416 48.426750
          -0.945746 0.508147 49.041525
          -0.105034 0.194633 48.664949
          -0.048924 -0.475189 47.993733
          -0.202157 -1.009725 47.447405
          -1.071747 -0.660172 47.839419
          -1.189468 -2.185547 48.437121
          -1.007782 -0.607811 49.010656
          -0.196938 -1.007658 49.413953
          -0.079397 -0.489402 48.874425
          -0.199728 -1.033114 47.471311
          -0.187647 -0.365795 48.313867
          -0.836022 -0.239025 48.113556
          -0.228076 -0.390881 48.439240
          -0.782634 -0.338008 48.748976
          -0.107720 -0.256852 48.535651
          -0.199364 -1.033839 49.389196
          -1.120070 -0.660800 47.828097
          -0.790076 -0.366539 48.263257
          -0.217200 -0.613446 47.834218
          -0.477908 -0.337571 48.359845
          -0.249149 -0.617699 48.984385
          -0.867661 -0.366864 48.692446
          -1.007732 -0.683175 49.073154
          -1.173935 -0.048308 46.298117
          -0.394828 -0.050000 47.970234
          -0.368651 -0.050000 47.931184
          0.224718 -0.049998 48.570640
          -0.295247 -0.050000 48.771744
          -0.367078 -0.050000 48.825310
          -1.183729 -0.048629 50.556869
          -1.120070 0.560800 47.828097
          -0.790076 0.266539 48.263257
          -0.217200 0.513446 47.834219
          -0.477908 0.237571 48.359845
          -0.249149 0.517699 48.984385
          -0.867661 0.266864 48.692446
          -1.007732 0.583175 49.073154
          -0.199728 0.933114 47.471311
          -0.187649 0.265796 48.313864
          -0.836022 0.139025 48.113556
          -0.228079 0.290882 48.439241
          -0.782634 0.238008 48.748976
          -0.107725 0.156853 48.535636
          -0.199364 0.933839 49.389196
          -0.048928 0.375189 47.993732
          -0.202157 0.909725 47.447405
          -1.071747 0.560172 47.839419
          -1.189468 2.085546 48.437123
          -1.007782 0.507811 49.010656
          -0.196938 0.907658 49.413953
[...]
      <PointData Scalars="density">
        <DataArray type="Float64" Name="density" format="ascii">
          944.468731
          906.401187
          1007.737766
          1054.451786
          1022.625943
          901.653629
          1133.427248
          997.636760
          816.374810
          969.852060
          966.020334
          1029.620268
          863.735531
          1049.751359
          999.018087
          1034.206937
          847.655994
          734.686837
          1048.061524
          939.291618
          1041.422222
          963.530903
          1015.344480
          772.162857
          1014.040550
          731.519647
          1022.511782
          982.972668
          999.018091
          1034.206821
          847.646739
          734.686804
          1048.061562
          939.291739
          1041.422235
          997.636811
          816.375801
          969.851952
          966.020017
          1029.620286
          863.735804
          1049.751377
          944.469508
          906.401513
          1007.737608
          1054.452015
          1022.625850
          901.653363
          1133.427478
          856.626018
          1060.770719
          593.853006
          1028.488523
          593.528506
          1053.881585
          976.136370
          974.926867
          842.139831
          948.278453
          1133.263108
          1055.204846
          1030.058931
          882.874612
          593.825122
          854.103299
          956.164708
          588.147281
          954.054620
          1021.972289
          593.546954
          939.847914
          1011.615740
          588.645994
          999.069778
          587.683494
          860.337307
          882.246281
          593.825122
          854.103506
          956.164708
          588.147282
          954.054620
          1021.967891
          593.546954
          974.927277
          842.139782
          948.277284
          1133.263566
          1055.198378
          1030.059514
          882.874693
          856.625836
          1060.770851
          593.853007
          1028.488807
          593.528506
          1053.881597
          976.135328
          1003.407215
          1064.520251
          1013.502153
          815.233451
          913.682952
          1089.908266
          1084.816340
          955.816621
          763.042467
          1051.098350
          1082.517130
          882.342688
          800.443966
          898.659222
          1054.984147
          1030.887049
          1090.283297
          1001.245493
          970.053700
          859.992122
          886.576094
          823.165564
          995.513812
          1089.040734
          790.611652
          933.684734
          1018.015956
          831.021723
          1054.983750
          1030.889886
          1090.288585
          1001.249044
          970.052734
          859.995743
          886.575882
          955.815908
          763.042835
          1051.096078
          1082.517228
          882.346942
          800.444033
          898.659081
          1003.410466
          1064.520829
          1013.501838
          815.233142
          913.683041
          1089.908520
          1084.821904
          969.653708
          871.627392
          819.485977
          915.831850
          815.632376
          786.787644
          996.950326
          895.255925
          975.903072
          1049.924871
          1010.910027
          1034.499142
          882.405669
          894.472178
          823.095081
          1041.757576
          783.733461
          941.632048
          796.527896
          1041.817215
          829.621755
          987.114727
          1032.088772
          938.703704
          926.288802
          938.591993
          935.556543
          830.775962
          819.472215
          1041.757579
          783.733476
          941.632047
          796.527813
          1041.817213
          830.934149
          895.255770
          975.902984
          1049.924872
          1010.913320
          1034.499140
          882.405236
          894.472235
          969.650645
          871.627401
          819.486098
          915.847057
          815.632205
          786.787502
          996.941770
          762.706922
          1018.369001
          944.622873
          816.396042
          809.814542
          1025.156365
          844.795677
          1019.780682
          1016.191288
          1034.913739
          1014.961174
          1014.747330
          1024.831242
          1023.224024
          857.940740
          1081.998203
          985.474564
          973.157146
          897.295486
          913.987657
          961.791563
          818.275296
          967.719936
          898.180233
          1090.360123
          1195.870665
          927.445175
          831.250072
          857.940590
          1081.997986
          985.473020
          973.155663
          897.294810
          913.987647
          961.792044
          1019.780679
          1016.180125
          1034.914564
          1014.957584
          1014.747274
          1024.840822
          1023.224024
          762.702615
          1018.369007
          944.622786
          816.395323
          809.814763
          1025.156369
          844.795707
          812.938944
          800.676902
          898.681008
          1079.716713
          889.653171
          916.507852
          907.922927
          783.284743
          924.944906
          872.900348
          1140.103304
          858.170759
          968.478369
          918.526181
          901.422884
          878.215025
          912.187859
          1005.848095
          903.731320
          858.170472
          880.845163
          1070.640854
          937.007036
          944.263682
          1051.526238
          966.589579
          914.165626
          1090.991219
          901.422881
          878.215054
          912.192164
          1005.845419
          903.730118
          858.170232
          880.845163
          783.284862
          924.944896
          872.900359
          1140.102823
          858.170787
          968.478426
          918.526665
          812.938943
          800.677017
          898.681008
          1079.716713
          889.653171
          916.508338
          907.920311
          1092.352892
          952.988247
          1083.566987
          889.120594
          1075.213474
          922.777393
          897.570418
          918.661254
          1115.510235
          941.018983
          918.772247
          941.440176
          885.986486
          919.642525
          1067.855484
          937.285777
          1003.681331
          1004.676521
          1017.027118
          941.582445
          1088.082778
          852.669782
          925.558341
          1014.793109
          1066.295815
          1031.253467
          910.212207
          908.372815
          1067.855485
          937.285756
          1003.680449
          1004.667944
          1017.026033
          941.582443
          1088.082779
          918.661024
          1115.510927
          941.018995
          918.772246
          941.440172
          885.980003
          919.642844
          1092.355002
          952.987670
          1083.566986
          889.120594
          1075.213475
          922.777824
          897.564983
          1092.355602
          952.987591
          1083.566985
          889.120595
          1075.213475
          922.778073
          897.564387
          918.660922
          1115.510115
          941.019016
          918.772247
          941.440179
          885.976338
          919.643141
          1067.855485
          937.285741
          1003.678252
          1004.672696
          1017.027379
          941.582440
          1088.082779
          852.669782
          925.558341
          1014.793050
          1066.296008
          1031.253306
          910.212207
          908.372816
          1067.855484
          937.285755
          1003.683385
          1004.671997
          1017.025752
          941.582438
          1088.082779
          918.661285
          1115.511120
          941.018996
          918.772246
          941.440177
          885.990405
          919.642498
          1092.352304
          952.988276
          1083.566986
          889.120593
          1075.213476
          922.777375
          897.571273
          812.936516
          800.677053
          898.681008
          1079.716713
          889.653172
          916.508738
          907.920626
          783.284891
          924.944882
          872.900263
          1140.103594
          858.170785
          968.478483
          918.527058
          901.422883
          878.214965
          912.191833
          1005.849431
          903.731332
          858.170590
          880.845162
          1070.640855
          937.007372
          944.263680
          1051.525994
          966.589610
          914.165704
          1090.991219
          901.422884
          878.215085
          912.188302
          1005.844102
          903.730074
          858.170223
          880.845162
          783.284845
          924.944878
          872.900410
          1140.102672
          858.170829
          968.478272
          918.526741
          812.941342
          800.676999
          898.681007
          1079.716713
          889.653171
          916.508425
          907.922593
          762.706337
          1018.369012
          944.622782
          816.395779
          809.814984
          1025.156366
          844.795887
          1019.780675
          1016.182511
          1034.914671
          1014.960935
          1014.747370
          1024.836941
          1023.224023
          857.940572
          1081.997962
          985.473244
          973.155936
          897.294825
          913.987631
          961.792382
          818.043317
          967.719971
          898.180285
          1090.360437
          1195.870626
          927.445147
          824.859846
          857.940608
          1081.997997
          985.474272
          973.156817
          897.295569
          913.987711
          961.792088
          1019.780679
          1016.188630
          1034.914406
          1014.957904
          1014.747283
          1024.835406
          1023.224021
          762.703173
          1018.369007
          944.622794
          816.395122
          809.814841
          1025.156368
          844.795414
          969.651417
          871.627372
          819.486022
          915.846221
          815.632327
          786.787367
          996.939935
          895.255746
          975.902934
          1049.924875
          1010.913197
          1034.499142
          882.405381
          894.472350
          822.797992
          1041.757576
          783.733478
          941.632047
          796.527717
          1041.817214
          822.416362
          987.114753
          1032.088784
          938.703704
          926.288694
          938.591995
          935.556548
          830.775945
          819.832328
          1041.757579
          783.733473
          941.632048
          796.527794
          1041.817211
          825.868075
          895.255784
          975.903023
          1049.924872
          1010.909594
          1034.499139
          882.405222
          894.472270
          969.652829
          871.627412
          819.486132
          915.832521
          815.632151
          786.787482
          996.952689
          1003.409563
          1064.521355
          1013.501915
          815.233339
          913.683394
          1089.908603
          1084.823657
          955.815005
          763.042943
          1051.099976
          1082.517151
          882.346341
          800.444087
          898.659920
          1054.983709
          1030.888516
          1090.287950
          1001.250666
          970.052953
          859.996211
          886.575981
          823.358488
          995.513901
          1089.040282
          790.611394
          933.684803
          1018.015904
          824.051754
          1054.983754
          1030.888410
          1090.283798
          1001.243990
          970.053575
          859.991370
          886.576112
          955.818416
          763.042782
          1051.094693
          1082.517222
          882.343053
          800.444039
          898.658385
          1003.408100
          1064.519580
          1013.502064
          815.233054
          913.682591
          1089.908237
          1084.814058
          856.625910
          1060.770856
          593.853007
          1028.488927
          593.528506
          1053.881820
          976.135240
          974.927273
          842.139812
          948.277611
          1133.262518
          1055.198312
          1030.059965
          882.874686
          593.825122
          854.102941
          956.164708
          588.147282
          954.054620
          1021.967473
          593.546954
          939.847889
          1011.615819
          588.645994
          999.069778
          587.683494
          860.337358
          882.246076
          593.825122
          854.103844
          956.164708
          588.147282
          954.054620
          1021.972775
          593.546954
          974.927083
          842.139767
          948.277991
          1133.264134
          1055.205281
          1030.059601
          882.874778
          856.625994
          1060.770851
          593.853007
          1028.488452
          593.528506
          1053.881383
          976.136307
          944.469459
          906.401546
          1007.737593
          1054.452157
          1022.625828
          901.653356
          1133.428113
          997.636748
          816.375681
          969.852058
          966.019964
          1029.620363
          863.735760
          1049.751326
          999.017926
          1034.206979
          847.653875
          734.688334
          1048.061686
          939.291821
          1041.422384
          963.530881
          1015.344696
          772.162857
          1014.040558
          731.519644
          1022.511711
          982.972693
          999.018319
          1034.206961
          847.648887
          734.685306
          1048.061464
          939.291411
          1041.422051
          997.636730
          816.375867
          969.851876
          966.020139
          1029.620096
          863.735730
          1049.751424
          944.469471
          906.401497
          1007.737593
          1054.451833
          1022.625842
          901.653383
          1133.426812
        </DataArray>
        <DataArray type="Float64" Name="pressure" format="ascii">
          -6663.752222
          -11231.857562
          928.531962
          6534.214345
          2715.113132
          -11801.564562
          16011.269746
          -283.588746
          -22035.022786
          -3617.752741
          -4077.559869
          3554.432182
          -16351.736235
          5970.163049
          -117.829535
          4104.832430
          -18281.280699
          -31837.579547
          5767.382842
          -7285.005811
          4970.666610
          -4376.291666
          1841.337574
          -27340.457202
          1684.866022
          -32217.642403
          2701.413830
          -2043.279869
          -117.829059
          4104.818479
          -18282.391296
          -31837.583578
          5767.387480
          -7284.991283
          4970.668222
          -283.582649
          -22034.903854
          -3617.765765
          -4077.597986
          3554.434324
          -16351.703527
          5970.165234
          -6663.659085
          -11231.818470
          928.513020
          6534.241762
          2715.102024
          -11801.596417
          16011.297411
          -17204.877860
          7292.486334
          -48737.639295
          3418.622803
          -48776.579242
          6465.790151
          -2863.635593
          -3008.775995
          -18943.220284
          -6206.585696
          15991.572966
          6624.581508
          3607.071738
          -14055.046531
          -48740.985340
          -17507.604077
          -5260.235000
          -49422.326223
          -5513.445595
          2636.674672
          -48774.365576
          -7218.250268
          1393.888844
          -49362.480730
          -111.626657
          -49477.980683
          -16759.523128
          -14130.446259
          -48740.985391
          -17507.579244
          -5260.235001
          -49422.326144
          -5513.445590
          2636.146867
          -48774.365579
          -3008.726743
          -18943.226211
          -6206.725930
          15991.627953
          6623.805382
          3607.141675
          -14055.036828
          -17204.899736
          7292.502115
          -48737.639198
          3418.656898
          -48776.579301
          6465.791639
          -2863.760587
          408.865787
          7742.430163
          1620.258354
          -22171.985899
          -10358.045705
          10788.991903
          10177.960824
          -5302.005490
          -28434.903954
          6131.801963
          9902.055552
          -14118.877415
          -23946.724035
          -12160.893374
          6598.097628
          3706.445910
          10833.995614
          149.459198
          -3593.555982
          -16800.945420
          -13610.868705
          -21220.132312
          -538.342560
          10684.888047
          -25126.601711
          -7957.831948
          2161.914731
          -20277.393280
          6598.049957
          3706.786333
          10834.630169
          149.885333
          -3593.671953
          -16800.510856
          -13610.894202
          -5302.091000
          -28434.859809
          6131.529396
          9902.067404
          -14118.366994
          -23946.716008
          -12160.910300
          409.255912
          7742.499538
          1620.220500
          -22172.023003
          -10358.035075
          10789.022372
          10178.628502
          -3641.554982
          -15404.712979
          -21661.682788
          -10100.178060
          -22124.114877
          -25585.482707
          -365.960917
          -12569.288960
          -2891.631329
          5990.984512
          1309.203274
          4139.897058
          -14111.319762
          -12663.338615
          -21228.590336
          5010.909171
          -25951.984706
          -7004.154200
          -24416.652458
          5018.065827
          -20445.389423
          -1546.232727
          3850.652607
          -7355.555483
          -8845.343770
          -7368.960867
          -7733.214786
          -20306.884517
          -21663.334191
          5010.909472
          -25951.982866
          -7004.154311
          -24416.662383
          5018.065615
          -20287.902109
          -12569.307596
          -2891.641912
          5990.984658
          1309.598403
          4139.896838
          -14111.371701
          -12663.331823
          -3641.922590
          -15404.711829
          -21661.668196
          -10098.353110
          -22124.135396
          -25585.499734
          -366.987618
          -28475.169360
          2204.280170
          -6645.255193
          -22032.474989
          -22822.254931
          3018.763760
          -18624.518701
          2373.681876
          1942.954605
          4189.648662
          1795.340845
          1769.679566
          2979.749071
          2786.882938
          -17047.111203
          9839.784388
          -1743.052329
          -3221.142493
          -12324.541635
          -10321.481105
          -4585.012381
          -21806.964420
          -3873.607703
          -12218.372063
          10843.214808
          23504.479783
          -8706.578955
          -20249.991347