<?xml version="1.0"?>
<VTKFile type="PolyData" version="0.1" byte_order="LittleEndian" header_type="UInt32" compressor="vtkZLibDataCompressor">
  <PolyData>
    <Piece NumberOfPoints="686" NumberOfVerts="686" NumberOfLines="0" NumberOfStrips="0" NumberOfPolys="0">
      <PointData>
        <DataArray type="Float64" Name="density" format="ascii" RangeMin="500" RangeMax="1112.523304604743">
          1005.2461742001199 961.2663484838932 1002.2953605422978 965.0337602656778 1015.0835366412211 826.2553450675792
          986.2270755646547 1027.6675728278751 1005.5516118547954 822.2834423498336 1021.9365373540008 985.6392298355062
          996.5534268740948 997.1898439202398 998.6649103853681 1003.5458102100956 977.2541891917997 821.2891622612804
          1001.1696898030332 1003.0156845294025 1005.6546793100848 994.5005850424018 957.797167511906 1002.8035890432069
          996.6531854603295 1035.0573602334891 928.8528721836987 823.671507771954 1042.463189100806 990.6986745333079
          992.254269617462 981.789088808064 1039.4218384532523 1021.0728398842867 1005.0655040831658 1011.0782389644684
          984.6776614949712 994.9447078916428 979.4678384737506 1005.617374908105 1012.8627493037238 996.1588263559449
          1048.3498267424393 1015.6910938097134 1033.3426146117192 945.2022197334306 1008.9098730020878 975.7844299140887
          970.9429827230837 1000.0000000000009 1028.7890767243152 617.8813178002531 986.5187415005024 619.2390092312288
          996.5126763236325 999.9999999999997 1032.019942628119 1000.0000000000045 1003.1841682697304 932.1469460655437
          817.7423423563336 999.9999999999997 993.7041103873589 999.9999999999991 1000.0000000000009 999.9999999999999
          619.2389587523077 999.9999999999998 899.0491795238673 999.9999999999995 997.4821244209743 979.8250282440334
          999.9999999999981 1000.0000000000009 1000.0000000000063 990.5058948570179 941.8001617369262 999.999999999999
          999.9664365731135 999.9999999999999 500 999.9999999999999 989.2926409016164 999.9999999999994
          1006.1362739710378 1000.0000704409051 963.2753126650788 968.3712860199456 830.9454881333214 1000.0039762345389
          801.954937872033 1005.2068048976141 1035.1436357134894 500 1026.6186859286138 500
          976.8640660850017 999.950880661907 500 966.1984680149031 1030.4569909679212 831.4450809545513
          1002.4934205643934 1014.4306437326968 1006.1238784658378 1002.5008917170123 831.6515253957074 1005.8779534181314
          1010.0211079715172 959.7694139496728 1000.000000000001 1014.3372503529741 1003.0420612405247 999.9999999999991
          999.3486947524734 981.6675573868428 1078.6032921585493 1000 963.9250725097079 831.3209006070965
          1007.1229483977065 1058.7262871117268 992.7276792014823 942.5225957209599 1012.2866224497488 831.2368272063135
          1012.5239978189364 999.932389332502 1046.6862359218014 952.5966368073383 828.1900544758042 999.9464307975334
          1006.1954161739985 945.8656489283849 831.3291611683243 1005.9275259267777 1018.0837221963861 1089.2374821778533
          999.9880618363362 1028.942395557505 995.0372778439419 998.9680754407458 1033.5671491914522 831.505495218843
          821.6425024015596 894.3080232433587 1034.7620395845663 1000.0000000000001 999.9999999999842 831.4450809545513
          987.0722328482902 831.0861015539516 1000.0000000000061 999.9999999999995 1000.0000000001514 999.9999999999968
          999.9999999999999 985.1148185733643 1000.0000000000014 999.9999999999999 999.9999999999999 831.2000075927074
          999.9999999999999 830.9225508667769 999.9999999999994 999.999999999999 999.999999999999 831.2790589303119
          1017.5666514681196 986.2341931525871 500 972.0367862814102 998.7907945530688 973.9716288430031
          998.8309427217266 831.3209006072741 1000.0000000000006 831.3291611683243 1000.0000000000001 999.999951527297
          999.9999999999986 831.2400442613491 999.9999242010583 999.8497484443177 1000.0000000000015 500
          1000.0000000000011 999.9641871563521 1000.0304066919666 999.9646164825587 1000.000003071219 831.5054952188428
          1006.5549327813739 831.0289168813946 999.9985045618863 999.9489768327918 999.999999999999 1000.0000000000001
          1000.0000000001882 831.0861015539516 999.9999999999957 999.9999999999977 1000.0000000000005 1000.0000000000001
          1008.7739615538101 1042.924448609983 998.2757653293748 825.8542048924236 830.9204375306173 1000.0000000000011
          1000.0000000001213 994.5022434366018 1000.0000000000001 992.1244518854508 1000.0000000000009 990.4813629711441
          999.9999999999995 831.2000075926275 813.6771892476992 1000.3845516091951 987.1866090440624 990.118207427672
          801.1969455774289 831.2822697584387 1000.0000713900469 973.9796178384123 989.4863295706812 1053.9290198987817
          999.9999999999997 769.3402807876275 999.9986670966763 999.9999999999993 978.9843164188943 1000.7553280535661
          978.759544225973 970.25688563571 998.109618133697 1000.0000000000008 1000.0058032707065 999.9999999999995
          999.999925927873 831.0289168813947 999.9857406475622 999.9999999999984 1000.0318052065551 988.1092973220731
          831.1333417940477 999.9999999999981 1000.0000000000003 999.9999999999992 1000.0000000000024 1027.6126209683086
          831.6410442411191 999.9999999999995 1000.0000000000014 987.1352581364644 999.9999999999998 1000
          999.9999999999976 1003.2500185187189 1000.0000000000003 999.9999999999998 1002.7251056595297 1000.0000000000008
          999.9999999999999 995.6080709827144 998.0761816577915 975.1794541488562 990.5712013165297 1020.2446337907736
          992.0541672037646 968.4188092290594 1008.3106971224856 995.819822756935 1000.2165643184434 1000.050478290426
          932.6919767464645 999.9307745200831 1000.0936852329737 1014.6501755244421 831.1921799015232 1000.2232792959419
          1004.9414244615797 1010.2483134158855 1000.086663495007 1000.2638588154136 999.999078607942 998.031242019288
          831.1921799015232 999.9999999999987 999.9999999999993 1000.0000000000003 999.9981315072455 1001.9824656000839
          999.9999999999983 1000.0000000000047 1000.0000000000016 1000 999.9999999999991 1000.0000000000008
          992.1770324187722 1000 971.7881145616777 1000.0000000000006 999.9999999999985 999.9999999999999
          1094.127504238009 999.9999999999991 1000.0209586245534 999.9999999999967 987.6482989812287 500
          1000.0000000000009 1000.0000000000017 1000.5485358595022 1000.2884737659608 500 944.9125718074862
          1013.3383222048936 1001.9099665363387 1007.4095125890495 991.773456496514 994.75469401702 999.9999999999999
          980.5404172375977 1028.3326701989442 1000.0659798197813 1000.0000000000023 993.6622501422356 1000.1188751921641
          1008.1900021700103 999.9999999999998 1000.0000000000016 1000.0000000000002 983.212119739271 1000.0000000000006
          989.5527157081021 1005.0198899950263 1000 1000.0000000000007 999.9999999999976 999.9356002809899
          1000.2890910130352 1000.0000000000008 999.9999999999972 1000.0000000000002 999.9999999999997 1000.0000000000005
          999.9999999999999 961.3210167540869 1000.0000000000003 1021.9040683891241 1000.0000000000005 1000.0000000000031
          999.9999999999998 998.3884347154076 999.9999999999991 997.7657820007543 999.9999999999987 1008.5382657718599
          978.7787056351706 999.9999999999998 1000.0000000000007 974.2635751842146 1005.9553290455257 500
          1016.2403964441351 988.0300734602251 935.9782957671499 1008.4511918585987 1063.1984778553524 998.1175337575949
          999.9999999999999 1025.0491027064893 1028.436619495775 1000.0400879486496 1000.0000000000015 1009.2794198197678
          1000.051468467037 1014.1463426449088 1000.0000000000008 999.9999999999999 999.9999999999991 1006.8387473362508
          999.9985010901945 1022.0703898507253 1004.6295520470709 1000.0000000000003 1000.0000000000032 999.9999999999992
          999.9991026816184 962.2992669593033 1000.5234497256339 831.3083727328091 1000.0000000000003 999.9999999999998
          1000.0000000000001 999.9999999999986 1017.717238186758 831.2119758542813 999.9999999999995 999.9999999999997
          984.064848562592 1000.0000000000001 1000.0000000000003 1000.0000000000048 997.4960323240573 999.9999999999981
          1000.0000000000005 979.4632590908698 1000.0000000000006 999.9999999999998 964.3688057887258 500
          995.6074396750003 831.2542363450337 1005.0915509600499 1043.9820124437297 999.5354969837293 978.9617192183588
          998.8813367292645 1005.5140427094335 999.998469615981 1004.6248073103291 1000.0000000000007 1000.044303387001
          1064.1202557589943 831.3605319057351 989.4863294719878 1005.6871984153869 1008.1816847070796 999.9034265600384
          1000.0579549227983 999.9999999999995 1055.6783524109076 831.3605319057349 1000 1000.0000000000008
          999.9999999999993 999.9999999999987 983.7547644845159 1000.0000000000006 1000.0000000000003 1000.0000000000244
          831.4521534091862 999.9999999999964 999.9999999999983 1000 1000.0000000000017 991.2948915835836
          1011.1687852043353 827.0166619049537 998.9300501593486 965.6477688080962 1000.0000000000005 999.9999999999894
          1037.2554852032315 1000.0000000000038 500 1000 995.0773552150389 1000.0000000000002
          831.4184232170529 829.4540624581953 997.4282770539852 959.4529721648065 1019.7726549882635 979.7073300498387
          831.5051028886039 999.9999999999816 954.7227474260103 1000.0553080517328 980.3075751259572 999.9482560354243
          1005.0862596669696 1000.0000000000014 1000.0000000000002 998.5133665956624 985.1504883034959 1005.3223136640361
          988.6399871149079 957.8262034486875 1000.0000000000002 999.9978370717761 999.9999999999978 1000.0000000000066
          831.1535365873716 1000.0000000000014 999.9999999999977 999.9642161846112 1000 999.9999999999233
          831.0796797864618 953.6044230256391 831.4521534257489 999.9999999999995 1000 999.9999999999693
          999.9999999999984 999.9999999999992 1042.1397570106965 1000.0000000000015 999.9999999999999 999.9999999999959
          831.1101683867673 1000.0000000000003 831.2119758312595 1000.0000000000001 999.999999999997 999.9999999999999
          831.0519593103033 831.4548045220314 1002.6476269020533 1025.57116187413 999.6871669839754 981.7835509064822
          967.9469880357927 1047.4038234879415 831.1101683867653 1000 831.1628806977384 999.999999999999
          1000.0000000000002 999.9999999999994 831.054095010053 999.9999999999877 989.4863294902786 1000.0000000000003
          985.7617744614458 1000.000000000001 999.9627886151077 999.9999999999977 999.9651185265923 999.9999999999721
          831.370676752996 950.466090675565 831.1535365873715 999.9999999999956 1000.0564476466033 955.9321915807019
          992.0171874492008 958.8230191194822 831.0796796762406 975.4959314768062 1026.755738685559 1027.2999267816163
          974.4387675675138 831.3083727636227 985.8178550648107 989.3156523823011 994.7525798433433 999.999999999996
          952.8897101361379 1010.4687229909322 1000.0000000000006 992.3960142001994 1003.1201195631999 975.8311895476464
          999.9999999999986 1033.4427922098569 831.4184232170556 822.7270311529635 997.2957600203716 994.91438822578
          998.3100280547679 984.0751597745563 831.5042053544312 1003.6248298554344 999.9642866642025 1024.9385972815728
          1022.9197990240425 1051.4408265947995 999.9999999999993 994.0787161240909 984.4192150387621 831.1628806977383
          1038.8309690946196 989.7118606522639 1057.8924482358366 1000.0000000000036 995.0855290508939 997.3438695150977
          993.75949300928 1018.799167635912 831.370676752996 1035.3034767103334 973.4385050356758 979.4001714955647
          999.9999999999995 943.1434211990928 617.8813178009656 1029.9366455537454 619.2389875953244 983.8695338057747
          999.9999999999994 1007.3135947615403 999.9999999999303 1075.3990094844671 1017.4209452455362 994.9942831240329
          1000.0000000000009 1008.647874029886 999.9999983306973 999.9999999999994 1000 619.2389803887486
          999.9999999999999 1022.1719586833299 999.9999999689036 831.7661854112278 947.0154294829728 1000.0000014258634
          1000.0000000000002 1000.000000341936 1001.3912547165305 831.477968638098 999.9999997366914 999.9985537138477
          1000 618.0485502903813 1000.0000000000001 997.2162999017713 999.9999998707508 997.4476675264575
          999.9999999999807 1015.7571262715252 1061.9842329365176 831.448129419511 1000.0000000000018 985.0102779288528
          1000.0535769060778 1032.0418224524205 619.9738142198365 1015.4883196331351 618.028188817079 1112.523304604743
          1000.0000000000005 1007.361395502991 1071.1908671518702 992.5605385200661 891.7499498426719 829.4290346327198
          1018.0149238630496 991.2030263995539 977.388483940418 1023.5822940790634 823.0567738581199 1015.9426918874186
          964.8338828430275 1010.3912304403933 1035.4220652928107 970.894511029063 954.1309441290194 500
          824.5511265203452 994.653500460845 992.4933704728174 990.5574835234102 982.1113006549157 999.9360558586573
          1005.8016203171453 990.0803315467691 1004.3575675712982 1014.2650627593405 1005.4253269340992 1001.8515064686204
          1033.3138011513086 1003.54932975742 1011.1654888132047 992.7440039208716 999.8520723592716 940.6054202569978
          990.4937116910787 831.6896309068017 824.2436623433767 1018.1681110714793 500 995.6857465422253
          1044.9563845516027 999.6470695356364 1058.7182564552757 985.9629860441927 826.9484684607141 994.3133821383124
          1008.523611025159 983.5763621421124
        </DataArray>
        <DataArray type="Float64" Name="pressure" format="ascii" RangeMin="-60000" RangeMax="13502.79655256917">
          629.5409040143841 -4648.038181932811 275.4432650757326 -4195.948768118669 1810.0243969465373 -20849.35859189049
          -1652.750932241438 3320.1087393450143 666.1934225754476 -21325.98691801996 2632.3844824801017 -1723.2924197392595
          -413.5887751086193 -337.21872957122287 -160.21075375582768 425.49722521147487 -2729.4972969840364 -21445.30052864636
          140.36277636398154 361.88214352830073 678.561517210178 -659.9297949117863 -5064.339898571284 336.4306851848278
          -401.6177447604605 4206.883228018696 -8537.655337956163 -21159.41906736552 5095.582692096714 -1116.1590560030527
          -929.4876459045599 -2185.3093430323224 4730.620614390282 2528.7407861144084 607.8604899798984 1329.3886757362043
          -1838.680620603459 -606.6350530028649 -2463.8593831499293 674.0849889726042 1543.5299164468597 -460.94083728660735
          5801.979209092715 1882.9312571656055 4001.1137534063073 -6575.733631988323 1069.1847602505368 -2905.8684103093537
          -3486.842073229959 1.0913936421275139e-10 3454.6892069178284 -45854.241863969626 -1617.7510199397102 -45691.318892252544
          -418.47884116410114 -4.092726157978177e-11 3842.3931153742797 5.456968210637569e-10 382.1001923676522 -8142.366472134754
          -21870.918917239975 -4.092726157978177e-11 -755.5067535169292 -1.0913936421275139e-10 1.0913936421275139e-10 -1.3642420526593924e-11
          -45691.32494972308 -2.7284841053187847e-11 -12114.098457135919 -5.4569682106375694e-11 -302.14506948308554 -2420.996610715988
          -2.319211489520967e-10 1.0913936421275139e-10 7.503331289626658e-10 -1139.2926171578529 -6983.980591568861 -1.227817847393453e-10
          -4.027611226383669 -1.3642420526593924e-11 -60000 -1.3642420526593924e-11 -1284.8830918060276 -6.821210263296962e-11
          736.3528765245337 0.008452908614344778 -4406.962480190546 -3795.4456776065263 -20286.54142400143 0.4771481446641701
          -23765.407455356035 624.8165877136944 4217.236285618728 -60000 3194.2423114336543 -60000
          -2776.3120697997965 -5.894320571155731 -60000 -4056.183838211623 3654.8389161505474 -20226.59028545385
          299.21046772721184 1731.677247923617 734.86541590054 300.1070060414804 -20201.816952515113 705.3544101757643
          1202.5329565820584 -4827.67032603927 1.227817847393453e-10 1720.4700423568966 365.04734886296774 -1.0913936421275139e-10
          -78.15662970318954 -2199.893113578869 9432.395059025912 0 -4328.991298835053 -20241.491927148418
          854.7538077247827 7047.15445340722 -872.6784958221288 -6897.288513484814 1474.3946939698617 -20251.580735242384
          1502.8797382723724 -8.113280099760232 5602.348310616171 -5688.403583119402 -20617.19346290349 -6.428304295995986
          743.4499408798229 -6496.122128593815 -20240.500659801088 711.3031112133194 2170.046663566336 10708.497861342394
          -1.43257963965425 3473.087466900606 -595.5266587269762 -123.8309471105049 4028.0579029742694 -20219.340573738846
          -21402.899711812854 -12683.03721079696 4171.444750147957 1.3642420526593924e-11 -1.8962964531965554e-9 -20226.59028545385
          -1551.332058205171 -20269.667813525808 7.366907084360719e-10 -5.4569682106375694e-11 1.8171704141423106e-8 -3.8198777474462986e-10
          -1.3642420526593924e-11 -1786.2217711962785 1.6370904631912708e-10 -1.3642420526593924e-11 -1.3642420526593924e-11 -20255.999088875113
          -1.3642420526593924e-11 -20289.293895986775 -6.821210263296962e-11 -1.227817847393453e-10 -1.227817847393453e-10 -20246.512928362576
          2107.9981761743556 -1651.8968216895519 -60000 -3355.5856462307793 -145.10465363173807 -3123.4045388396225
          -140.28687339280623 -20241.491927127106 6.821210263296962e-11 -20240.500659801088 1.3642420526593924e-11 -0.0058167243651041645
          -1.6370904631912708e-10 -20251.194688638105 -0.009095873001569998 -18.03018668187633 1.77351466845721e-10 -60000
          1.3642420526593924e-10 -4.29754123775183 3.648803035994206 -4.246022092961539 0.0003685462797875516 -20219.34057373886
          786.591933764862 -20276.52997423265 -0.17945257364317513 -6.122780064983999 -1.227817847393453e-10 1.3642420526593924e-11
          2.2578205971512944e-8 -20269.667813525808 -5.184119800105691e-10 -2.7284841053187847e-10 5.4569682106375694e-11 1.3642420526593924e-11
          1052.8753864572082 5150.933833197969 -206.90816047501812 -20897.49541290917 -20289.547496325926 1.3642420526593924e-10
          1.4556462701875716e-8 -659.7307876077821 1.3642420526593924e-11 -945.0657737459096 1.0913936421275139e-10 -1142.236443462707
          -5.4569682106375694e-11 -20255.999088884706 -22358.737290276098 46.14619310341368 -1537.6069147125145 -1185.8151086793578
          -23856.366530708532 -20246.127628987357 0.008566805622649554 -3122.445859390523 -1261.6404515182603 6471.482387853803
          -4.092726157978177e-11 -27679.166305484694 -0.15994839884569956 -8.185452315956354e-11 -2521.882029732683 90.63936642793578
          -2548.8546928832466 -3569.1737237148027 -226.84582395635516 9.549694368615746e-11 0.6963924847741509 -5.4569682106375694e-11
          -0.008888655233931786 -20276.529974232635 -1.7111222925313996 -1.9099388737231493e-10 3.8166247866092817 -1426.884321351231
          -20263.99898471427 -2.319211489520967e-10 4.092726157978177e-11 -9.549694368615746e-11 2.864908310584724e-10 3313.5145161970377
          -20203.07469106571 -5.4569682106375694e-11 1.6370904631912708e-10 -1543.769023624277 -2.7284841053187847e-11 0
          -2.864908310584724e-10 390.0022222462667 4.092726157978177e-11 -2.7284841053187847e-11 327.01267914356777 9.549694368615746e-11
          -1.3642420526593924e-11 -527.031482074276 -230.8582010650207 -2978.46550213726 -1131.4558420164349 2429.3560548928326
          -953.4999355482523 -3789.742892512868 997.2836546982762 -501.6212691678038 25.98771821320497 6.057394851118261
          -8076.962790424254 -8.307057590027398 11.242227956845454 1758.0210629330577 -20256.938411817213 26.79351551302716
          592.9709353895623 1229.797609906259 10.399619400836855 31.66305784963697 -0.11056704695874942 -236.25095768543815
          -20256.938411817213 -1.5006662579253316e-10 -8.185452315956354e-11 4.092726157978177e-11 -0.22421913054131437 237.8958720100627
          -2.0463630789890885e-10 5.593392415903509e-10 1.9099388737231493e-10 0 -1.0913936421275139e-10 9.549694368615746e-11
          -938.7561097473326 0 -3385.4262525986724 6.821210263296962e-11 -1.77351466845721e-10 -1.3642420526593924e-11
          11295.300508561068 -1.0913936421275139e-10 2.5150349464047395 -3.956301952712238e-10 -1482.2041222525604 -60000
          1.0913936421275139e-10 2.0463630789890885e-10 65.82430314026169 34.61685191529796 -60000 -6610.491383101657
          1600.5986645872372 229.19598436064916 889.1415106859449 -987.1852204183233 -629.4367179575966 -1.3642420526593924e-11
          -2335.1499314882767 3399.920423873309 7.917578373758261 2.7284841053187847e-10 -760.5299829317255 14.265023059688247
          982.8002604012363 -2.7284841053187847e-11 1.9099388737231493e-10 2.7284841053187847e-11 -2014.545631287483 6.821210263296962e-11
          -1253.674115027743 602.3867994031616 0 8.185452315956354e-11 -2.864908310584724e-10 -7.727966281213412
          34.69092156422448 9.549694368615746e-11 -3.410605131648481e-10 2.7284841053187847e-11 -4.092726157978177e-11 5.4569682106375694e-11
          -1.3642420526593924e-11 -4641.477989509567 4.092726157978177e-11 2628.4882066948876 5.4569682106375694e-11 3.6834535421803594e-10
          -2.7284841053187847e-11 -193.38783415108992 -1.0913936421275139e-10 -268.1061599094892 -1.5006662579253316e-10 1024.5918926231843
          -2546.55532377953 -2.7284841053187847e-11 8.185452315956354e-11 -3088.370977894251 714.6394854630807 -60000
          1948.847573296207 -1436.3911847729833 -7682.60450794201 1014.1430230318429 7583.817342642287 -225.89594908861727
          -1.3642420526593924e-11 3005.892324778715 3412.394339492994 4.810553837946827 1.77351466845721e-10 1113.5303783721338
          6.176216044441389 1697.5611173890593 9.549694368615746e-11 -1.3642420526593924e-11 -1.0913936421275139e-10 820.6496803500931
          -0.17986917665893998 2648.446782087035 555.5462456485066 4.092726157978177e-11 3.8198777474462986e-10 -9.549694368615746e-11
          -0.10767820579076215 -4524.087964883606 62.813967076067456 -20242.99527206291 4.092726157978177e-11 -2.7284841053187847e-11
          1.3642420526593924e-11 -1.6370904631912708e-10 2126.068582410958 -20254.56289748625 -5.4569682106375694e-11 -4.092726157978177e-11
          -1912.218172488956 1.3642420526593924e-11 4.092726157978177e-11 5.729816621169448e-10 -300.47612111312446 -2.319211489520967e-10
          5.4569682106375694e-11 -2464.4089090956277 6.821210263296962e-11 -2.7284841053187847e-11 -4275.743305352903 -60000
          -527.1072389999699 -20249.49163859595 610.986115205983 5277.841493247561 -55.74036195248027 -2524.5936937969464
          -134.23959248826122 661.6851251320213 -0.18364608228239376 554.9768772394873 8.185452315956354e-11 5.31640644012441
          7694.430691079315 -20236.736171311786 -1261.6404633614638 682.4638098464266 981.8021648495551 -11.588812795394006
          6.954590735799684 -5.4569682106375694e-11 6681.402289308908 -20236.736171311815 0 9.549694368615746e-11
          -8.185452315956354e-11 -1.5006662579253316e-10 -1949.4282618580883 6.821210263296962e-11 4.092726157978177e-11 2.9331204132176936e-9
          -20225.74159089766 -4.3655745685100555e-10 -2.0463630789890885e-10 0 2.0463630789890885e-10 -1044.6130099699621
          1340.2542245202403 -20758.000571405555 -128.39398087816335 -4122.267743028456 5.4569682106375694e-11 -1.2687451089732349e-9
          4470.65822438778 4.501998773775995e-10 -60000 0 -590.7173741953329 2.7284841053187847e-11
          -20229.78921395365 -20465.512505016566 -308.6067535217762 -4865.643340223219 2372.718598591623 -2435.120394019359
          -20219.38765336753 -2.2100721253082156e-9 -5433.270308878764 6.636966207938713 -2363.0909848851343 -6.209275749088192
          610.3511600363481 1.6370904631912708e-10 2.7284841053187847e-11 -178.39600852050808 -1781.9414035804948 638.6776396843288
          -1363.2015462110576 -5060.855586157504 2.7284841053187847e-11 -0.25955138687095314 -2.5920599000528455e-10 7.912603905424476e-10
          -20261.575609515407 1.6370904631912708e-10 -2.7284841053187847e-10 -4.294057846650503 0 -9.208633855450898e-9
          -20270.43842562458 -5567.469236923307 -20225.741588910136 -5.4569682106375694e-11 0 -3.6834535421803594e-9
          -1.9099388737231493e-10 -9.549694368615746e-11 5056.770841283578 1.77351466845721e-10 -1.3642420526593924e-11 -4.911271389573812e-10
          -20266.77979358792 4.092726157978177e-11 -20254.562900248864 1.3642420526593924e-11 -3.54702933691442e-10 -1.3642420526593924e-11
          -20273.7648827636 -20225.42345735623 317.71522824639305 3068.539424895598 -37.53996192294835 -2185.9738912221337
          -3846.361435704871 5688.458818552981 -20266.779793588168 0 -20260.454316271393 -1.227817847393453e-10
          2.7284841053187847e-11 -6.821210263296962e-11 -20273.508598793647 -1.4733814168721437e-9 -1261.640461166562 4.092726157978177e-11
          -1708.5870646264993 1.227817847393453e-10 -4.4653661870779615 -2.7284841053187847e-10 -4.185776808926676 -3.3423930290155113e-9
          -20235.51878964048 -5944.069118932193 -20261.57560951542 -5.32054400537163e-10 6.773717592391222 -5288.137010315772
          -957.9375060959001 -4941.237705662138 -20270.438438851124 -2940.4882227832604 3210.6886422670777 3275.99121379395
          -3067.3478918983483 -20242.99526836527 -1701.8573922227142 -1282.1217141238685 -629.6904187988093 -4.774847184307873e-10
          -5653.234783663456 1256.2467589118614 6.821210263296962e-11 -912.4782959760751 374.4143475839837 -2900.257254282428
          -1.6370904631912708e-10 4013.1350651828234 -20229.78921395332 -21272.756261644383 -324.50879755540427 -610.2734129063947
          -202.79663342784715 -1910.9808270532494 -20219.49535746826 434.9795826521313 -4.2856002956978045 2992.6316737887373
          2750.3758828851005 6172.8991913759455 -8.185452315956354e-11 -710.5540651090951 -1869.6941953485475 -20260.454316271407
          4659.7162913543525 -1234.576721728331 6947.09378830039 4.3655745685100555e-10 -589.7365138927307 -318.735658188275
          -748.860838886394 2255.90011630944 -20235.51878964048 4236.4172052400045 -3187.3793957189037 -2471.9794205322387
          -5.4569682106375694e-11 -6822.789456108862 -45854.24186388413 3592.397466449447 -45691.32148856107 -1935.6559433070333
          -6.821210263296962e-11 877.6313713848413 -8.362803782802075e-9 9047.881138136054 2090.5134294643494 -600.6860251160515
          1.0913936421275139e-10 1037.7448835863197 -0.00020031632629979867 -6.821210263296962e-11 0 -45691.32235335017
          -1.3642420526593924e-11 2660.635041999585 -0.000003731570359377656 -20188.057750652668 -6358.148462043268 0.0001711036065898952
          2.7284841053187847e-11 0.00004103232186025707 166.95056598366136 -20222.64376342824 -0.00003159703283017734 -0.17355433827106026
          0 -45834.173965154245 1.3642420526593924e-11 -334.0440117874414 -0.000015509904187638313 -306.27989682509906
          -2.319211489520967e-9 1890.8551525830217 7438.107952382115 -20226.22446965868 2.1827872842550278e-10 -1798.7666485376621
          6.429228729330134 3845.0186942904656 -45603.14229361962 1858.5983559762144 -45836.61734195052 13502.79655256917
          5.4569682106375694e-11 883.3674603589134 8542.904058224422 -892.735377592071 -12990.006018879376 -20468.515844073627
          2161.7908635659523 -1055.636832053533 -2713.381927149835 2829.8752894876134 -21233.187137025616 1913.1230264902342
          -4219.934058836702 1246.9476528471978 4250.647835137279 -3492.658676512442 -5504.286704517667 -60000
          -21053.864817558577 -641.5799446986057 -900.7955432619065 -1133.1019771907813 -2146.6439214101183 -7.673296961129381
          696.1944380574369 -1190.360214387706 522.9081085557846 1711.8075311208577 651.0392320919027 222.1807762344497
          3997.6561381570264 425.91957089039624 1339.8586575845593 -870.719529495409 -17.75131688741112 -7127.34956916026
          -1140.7545970705542 -20197.2442911838 -21090.760518794792 2180.1733285775163 -60000 -517.7104149329671
          5394.7661461923235 -42.35165572362803 7046.190774633078 -1684.4416746968773 -20766.183784714303 -682.3941434025164
          1022.8333230190765 -1970.8365429465084
        </DataArray>
        <DataArray type="Float64" Name="velocity" NumberOfComponents="3" format="ascii" RangeMin="8.70649773272696e-21" RangeMax="9.861832417279407">
          -1.4398276461296637 -0.5649195239370151 -6.063917141882535 -0.7699080771718542 1.731975678278087 -8.210374128136538
          0.052099283401264664 0.012085468503231698 0 -1.189926737018881 -2.370002247551721 -6.400645633322855
          -0.22141804257099196 0.9997270994624999 -6.819465723084603 -1.3035023036718076 -1.3216199311577812 -6.006862323045594
          -1.134052754951621 -0.250358449692526 -8.260430810092718 -1.2734272828335973 -0.47611177665956084 -5.946963531485195
          -0.39685878132637575 1.5620459404305203 -6.752957430470331 -0.9588633927236634 -4.166715477972123 -6.244709735793167
          -3.4797366678474857 0.6886837168320443 -6.799465462828111 -0.337522722092352 1.2981380373148208 -6.328038008236524
          0.010798458684040311 0.25550965266238185 -5.3298500548820416 -0.42120056011296836 0.40878732133725054 -5.69611016194073
          -0.6858450062817383 -0.5546404060938789 -5.639766106562986 -1.357867409349369 0.278746994904317 -3.243433216743818
          2.737957581983418 0.812937686636765 -6.73736774942418 -0.15361575607803846 -0.7780313682683393 -7.125907533465014
          -2.2685261917943733 -0.08069824899306405 -7.895025295846637 -2.487120214109032 0.317213312727763 -6.489610043867882