<?xml version="1.0"?>
<VTKFile type="PolyData" version="0.1" byte_order="LittleEndian" header_type="UInt32" compressor="vtkZLibDataCompressor">
  <PolyData>
    <Piece NumberOfPoints="686" NumberOfVerts="686" NumberOfLines="0" NumberOfStrips="0" NumberOfPolys="0">
      <PointData>
        <DataArray type="Float64" Name="density" format="ascii" RangeMin="572.7836264683776" RangeMax="1169.5578521770262">
          1009.4707087389421 985.5903297685359 986.4805553884631 1009.5234408415205 985.1694438130907 1013.8512123422171
          1022.2102687285554 1020.8417820992795 1004.6045451358358 996.4157186389104 992.0950991199679 1001.0121785440979
          989.9807382481516 1003.8914529305903 1015.5271899487191 995.0009082092017 991.8431657363278 1021.3957480124956
          971.4596867434451 964.5147625636835 1004.9453895743565 1004.1506577421621 993.736256165321 999.0349667874291
          1057.667690051087 976.8064276645925 978.394874773046 968.566501691385 982.1169136143113 979.9209764717455
          1013.5258612111011 995.8310220459002 986.7812899500673 1007.6607172476292 995.2783972927916 1004.490171289119
          1017.7071566213319 1041.3875800463977 1022.3613961767122 973.652666626769 1000.5780388446481 1000.478677303602
          984.6982563353993 975.5751531042379 1005.4045973914172 985.7346089658164 1011.9748303444634 971.1026294322088
          1025.8456847352422 994.2051817583222 1011.243637127651 591.0199897565109 1010.7187455274621 591.0227012018365
          956.4934843042206 1008.9429529271664 1002.7544108266763 1001.3357352914701 1009.691003557638 974.0726003214193
          1034.1245127942216 1011.3063329417771 1023.5959338553675 590.8951019868693 967.1917056127357 1003.7230550026181
          573.0575871284432 996.6101443876817 1004.5833504927981 590.9920369229644 1012.6154506001088 999.599925291252
          572.7836264683776 1004.3939605631335 572.9772081527498 990.2725515285763 959.9736740290322 590.8951019898811
          1005.3889737051525 1003.715539866097 573.0575871545778 996.6065141251322 1006.5956122829352 590.992036923214
          1027.8288190321434 1001.2872862318497 1012.0681133527563 1022.532544342665 1000.3558117390953 980.4304931332197
          1007.5459649373025 974.2283687547708 994.391945785888 591.0199897580253 996.5161047236727 591.0227012128755
          1006.9053524660922 995.5872128975501 1041.975673826592 952.5824055078976 1003.8128421542208 827.912109981741
          980.62298725958 912.462834207129 967.0390176180842 992.5071827220678 818.3623556097556 957.3917258950733
          1002.375007846526 956.7373371918052 1013.1013138586368 1003.8117549223236 963.1594914729495 1040.3440231722539
          1094.2846750477884 980.8958469538918 980.4684406177851 1015.1360187040185 1011.9306051171892 829.5572380296758
          977.0815180171294 973.5656414987591 999.7627118795286 975.5820156137256 1001.3400556485261 826.2656638173537
          991.4963965768709 1021.5354284296998 998.612599421934 1027.0022683366267 991.1315336257416 987.2464190712215
          993.4053329913099 1000.541050873435 827.0208552656264 1005.0240413396908 960.8308203179432 1013.0421470112144
          992.0281195731889 991.7165032996478 1027.8686291569065 1032.8901082327159 986.0856740051503 827.4542793314768
          1005.9111337776076 1005.2136645068549 1023.5217320099867 990.675212416965 1013.433444626174 825.3890264918377
          1034.2895236437878 824.5090449436151 1029.4702012436899 1016.9804311677832 998.1672827685137 1019.2416421747747
          975.8684443166827 965.279791332612 1000.6722629507135 992.3636411821747 1021.967387394672 827.0953284304662
          995.3190302886503 818.9686651679242 987.0717095328207 1000.8169517229916 1001.3152668423287 829.5789125489688
          984.9532526055048 1043.8717070875668 994.150232898173 985.8831010745536 1001.1042239092737 972.7392826136252
          999.5620160167949 828.5460630316558 992.1698146098573 826.0076226625206 997.207671720269 1026.181561560528
          1001.3181451168272 828.6210311711453 998.2031072619884 973.99443268851 994.463171819811 996.9085492404621
          1000.6758805537189 1003.0093713919822 993.1445065520201 1001.5725116171569 1013.2794804256527 827.4013899698039
          993.1529754899851 827.0283031231425 1003.8741584156505 987.5520689893683 980.8567829463958 996.1169677335544
          1001.4440602776853 828.4093311964452 977.7908116087546 991.8721128274618 999.1841546100325 1003.8530315199813
          1004.3703513905704 1029.0233598842676 1034.0154137889538 965.0436238776158 980.7286113306911 1001.4224484649397
          999.6841301313834 1033.478207425277 1017.2947583236295 944.4674570364202 1007.4220506555421 966.237702888789
          1008.8901015677606 828.3780805846447 991.028101598132 990.9071303929402 1053.0281823173161 985.5085714928
          986.9368090293816 829.3903869468099 999.8937892981918 926.3863109281751 1012.5030100052553 934.927573577969
          999.8944707240545 1008.5734436212048 993.4788133784921 1002.5740288406654 1169.5578521770262 1059.6626688081853
          995.5034876062281 1002.4992454027818 966.1458840311293 1001.4234527094129 1040.7808518598576 995.0311004262165
          1001.139213086531 828.0239397862616 994.1380438173188 991.8743465643115 995.6811800008509 985.0400263028148
          807.623223296182 1015.5518443245945 1045.9959327798097 990.0648123245401 1020.4442552161867 980.7608312655913
          819.5180492353804 1004.228452519336 1006.8512521716459 1029.98076845721 997.5231189251817 999.0422668561872
          982.3616684424478 1014.3258299391803 1004.9221708127845 990.3573184907178 1013.4368772105679 996.728252280254
          1003.4280737491522 1001.315291993934 998.7050781608731 998.0117569807543 1014.7186374367818 1027.3868125428555
          1017.0464747609243 1004.8101651290448 983.7151033293778 995.1876805615127 953.0699324995745 996.383916183655
          982.0069059785147 984.4278907253785 1006.9904291436807 988.7610600643845 829.7126307154538 1014.7582457633656
          978.2567384665791 987.9528344659543 1008.2433421374601 999.6799203048009 1004.9308280974027 969.8490167734258
          829.3046366339393 989.1619499786782 1002.421203613178 1014.1502751896852 986.2040034978033 1000.1850924724839
          1005.5522956306785 1057.1023533701393 1010.4323011843184 986.980112026257 1015.8235565327585 984.536508834265
          952.8181543592212 990.8439965812446 1033.2120321833222 998.8729872265565 1031.136286027454 984.1652145587889
          1061.8126426029369 990.7944869532282 992.6048242244044 994.6581434534827 1014.5861120659113 1029.7485157768365
          987.2872827636891 994.0311896463207 991.462030487469 998.3869921454751 989.2993564421312 1004.5788808242081
          1018.1080391080008 1026.2469123048259 995.1222538572692 996.7822025224746 996.8543563239614 981.4735968457716
          937.5513226643911 1008.4898356924249 993.8758472387941 994.0351811808321 973.0324015363464 1020.7879770511107
          959.6541222274185 999.9612175597863 985.4058026412043 984.165300718461 953.9347855883333 992.0343579586394
          1017.1073937884124 1001.3166491880389 984.4898883734901 999.4532374631827 984.2295123865031 996.084111569365
          1033.6328088784876 1012.2008419391343 994.0106681835617 1006.2666860197758 1012.6122823907668 969.5315597422872
          1010.0331020103052 1006.1139076039493 1005.8424591724105 1090.9510904891931 999.4144024437611 980.2561781350926
          984.1626946975085 1038.326225716487 995.6907212585535 997.2064569443612 992.6718870940144 960.6492945183594
          977.4620309946358 1007.7527927694338 994.0280370829291 978.5464158746615 1010.0038305840593 1006.865599654051
          998.8344068563074 992.3499828670892 996.1045983298876 964.8870633763487 1053.9417855176657 1008.1566865617249
          981.4697476218596 1078.673401523816 1011.0672829675939 983.8018964789678 994.0319400962615 983.2861726162563
          1033.9952891854691 1093.0223105158911 999.9455339131983 1007.3218688257008 984.1632089238108 974.9168805234494
          1015.5169482398866 1002.0871318286204 1030.7621082821458 1023.7009899820792 1021.8548296588432 989.0524441432019
          995.2331053183565 989.185851324236 988.6878832334522 824.4800504989631 1006.7082137979561 959.7132915703318
          987.1664784057231 1022.2763063006179 995.4711672883099 826.4396495451309 1003.7219292980635 989.5494042302224
          982.113291223897 1010.2697852528643 996.6154011148408 1030.5602642652825 1004.5070426805878 993.7399475702213
          1018.7980844474413 986.4806291498596 1014.2119701967114 997.9434366668994 1012.4068336246228 1019.6687430671373
          1045.1428601472817 1009.3853002159201 971.6492064673756 967.4296758206702 991.9124174828883 997.0863910387706
          1001.8440277404275 969.8287340487329 987.042879184501 1041.8017829974751 993.6854415214835 992.8182193360759
          1012.6561198654356 829.452393888183 1022.0380057959197 1001.9593871074035 1027.6826474323627 999.2638511433596
          1009.4341560653293 1022.7343436878504 1036.9348497737406 829.2393670208215 991.2402558007379 990.7579406712539
          1015.6761161147691 986.2033961286887 968.6892918963141 982.1793931576012 1008.5442321418153 1001.1504159395705
          824.5576460961861 991.8321105586195 991.8704583769902 1014.692673157784 1011.7336739095209 971.699428012838
          945.0953168066234 1018.4910157567953 1013.3533003590084 1028.6341529537872 1001.4248544762269 999.8851761248591
          967.3864855912384 1009.9863179868313 1030.8646805708302 1008.0452136372478 929.8662437900285 994.2714281478335
          823.5709786128597 994.6349244275777 994.5617204776642 958.3605814329698 1011.2243051558725 1016.046117539469
          772.548999144818 999.8896062051425 1006.3928425549608 966.1486817382918 1016.7012987688488 1018.4823487343098
          987.008136613777 1019.0871724408132 1002.5757516396017 939.369983304054 967.4824040343657 1056.8238050778687
          962.8065465648029 1062.4838205240517 1001.4255138209166 1005.0664136525935 994.9285674062661 1001.1457769815606
          828.3362907838323 984.9537916099403 991.8729106189571 970.9077914833941 1001.7422025621954 1013.2856343096211
          826.0762496747467 986.4462263619392 815.6512860128879 1023.1740450930624 982.3919737564497 998.2014152048188
          1000.0621598939542 981.0321059251859 990.3813139889393 1000.6636991396244 1002.6181174829599 1008.0836775626267
          825.0371485003624 994.8511724416383 828.2923419282862 989.4901744164838 1003.7614974119815 1001.3077225689552
          812.2661279483356 1006.1631441143617 986.0912481324319 992.6173282750409 967.6902146296819 1024.1337767904763
          1044.8050089928402 1018.7304731930699 811.6223767068783 991.5220690767426 827.3237397915219 1009.8349860667115
          1014.1662504362871 1001.3122052122653 809.5117845040621 998.202520582073 1026.3377969021822 994.6437346252801
          941.9338027351821 1000.668811955375 1003.7147900530573 985.6305381907312 1012.4718929270155 1013.2829387152475
          828.688740466404 956.4083431507918 829.3515976370348 1012.6522309091789 965.8459393322256 980.497909039301
          1018.6036698067503 1005.0278978705094 826.6321018128799 963.1685238156317 987.4935630273815 999.1354071227463
          983.0465971551943 827.1743409826901 1044.275072811078 1002.6037147931316 1018.1138929672344 1014.8658311784651
          1002.4908319259703 1036.59479890576 1000.7008580864649 976.0107602547242 1027.6499160272174 1002.5525653910836
          990.0977383212721 1038.7897418096215 821.602560984268 1025.498898212535 952.2693318774402 1004.5001395636147
          992.2172452054439 1006.9252805761893 807.8476660119235 925.061004392634 1001.142822793817 959.1917731355087
          975.5882722422207 969.2716694560395 990.1025550067908 1018.51119874376 1001.9122818982752 828.173510545461
          995.656034235513 987.079408931212 1020.9648251660345 986.7942454515244 965.4554489713477 1003.8315544598871
          1007.1623039883912 988.7240828034439 828.9655001009372 1060.8229941155264 980.2835957340444 997.7373592436568
          1009.7895526107139 985.706909406459 591.0199897587496 1040.8534703596308 591.0227012142005 1015.2353264383748
          985.6415972664129 1020.8246065644903 1001.2901714575298 1022.598774824173 996.319023329777 1001.0877978515405
          982.1971849198973 932.7290752831422 590.8951019932958 988.226184286332 1000.7236462963236 573.057587158787
          1000.0117334764421 1013.7865823304378 590.9920369298334 985.3627656874946 1007.6349482840421 572.7836264804173
          1007.6899812479838 572.977208171301 1000.802392195529 985.7281402657127 590.8951019942632 996.456331791996
          1000.9129253026747 573.0575871514335 999.8984592245873 1005.5314626323764 590.9920369300696 998.1657487427138
          1001.2882912114563 989.2637395524798 995.0711641391366 1000.5424501147145 995.8435379430762 1080.2816543543001
          997.938234307409 1007.1207548822607 591.019989757086 949.0736128238027 591.0227012123157 1015.3140352920324
          1004.6622070364032 1007.1907611407361 982.6217239604957 982.7605515258011 980.1322058073943 1008.0631076783147
          1002.9739585853663 1064.5059292163737 1008.7365928043248 963.3601233917434 1011.0159627886386 967.5866632154717
          1028.2495372610033 1031.5992181481206 998.4325266602898 981.6992686810228 1008.4646670648211 994.2084092444272
          993.5344710250301 979.1232933473132 987.4065662763857 997.9145756805735 1090.8582985000494 992.6430832985025
          886.5185294171525 1051.7478494732468 907.8332591474458 1000.9176369664166 960.3806746929235 985.9500187218138
          1019.6391340463174 1003.5719104891243 984.200403635744 991.009911936414 1015.0996008959414 1004.8591122849413
          920.8456979809903 904.8519614212529 980.9877291557302 914.6651116202137 989.5507852979741 1055.8030939612845
          1000.441766141916 954.8107998416408 971.3422926467858 1029.998393107691 970.5847668456746 1018.1999552640326
          980.7741269271619 965.5483536366426
        </DataArray>
        <DataArray type="Float64" Name="pressure" format="ascii" RangeMin="-51265.96482379468" RangeMax="20346.942261243148">
          1136.485048673053 -1729.160427775696 -1622.3333533844243 1142.812900982458 -1779.6667424291218 1662.1454810660498
          2665.232247426652 2501.01385191354 552.5454163002951 -430.1137633307462 -948.5881056038488 121.4614252917454
          -1202.311410221805 466.97435167083313 1863.2627938462883 -599.891014895793 -978.8201116406617 2567.489761499469
          -3424.8375907865875 -4258.228492357985 593.4467489227745 498.07892905945664 -751.6492601614755 -115.80398550850987
          6920.122806130439 -2783.2286802488943 -2592.6150272344785 -3772.019797033795 -2145.9703662826405 -2409.4828233905446
          1623.1033453321288 -500.2773544919728 -1586.245205991927 919.2860697155083 -566.5923248650051 538.8205546942754
          2124.858794559832 4966.509605567726 2683.3675412054663 -3161.6800047877177 69.36466135776755 57.441276432241466
          -1836.2092397520883 -2930.9816274914556 648.5516869700587 -1711.846924102033 1436.9796413356062 -3467.684468134944
          3101.4821682290676 -695.3781890013397 1349.2364553181233 -49077.60122921869 1286.2494632954576 -49077.27585577962
          -5220.781883493528 1073.1543512599683 330.52929920116185 160.28823497641042 1162.9204269165666 -3111.287961429689
          4094.941535306589 1356.759953013252 2831.5120626441058 -49092.587761575676 -3936.9953264717105 446.7666003141767
          -51233.08954458682 -406.7826734782011 550.0020591357725 -49080.95556924427 1513.8540720130595 -48.008965049757535
          -51265.96482379468 527.2752675760239 -51242.73502167003 -1167.2938165708456 -4803.15911651614 -49092.587761214265
          646.676844618296 445.8647839316336 -51233.08954145066 -407.2183049841351 791.4734739522282 -49080.955569214326
          3339.4582838572114 154.4743478219698 1448.1736023307576 2703.9053211198006 42.697408691437886 -2348.3408240136396
          905.5157924763034 -3092.595749427501 -672.9665056934437 -49077.60122903696 -418.06743315927633 -49077.275854454936
          828.6422959310585 -529.5344522939877 5037.080859191028 -5690.111339052282 457.54105850649466 -20650.546802191086
          -2325.2415288504017 -10504.459895144515 -3955.3178858298907 -899.1380733518645 -21796.51732682933 -5112.99289259121
          285.0009415831255 -5191.519536983378 1572.1576630364143 457.41059067883725 -4420.861023246057 4841.282780670463
          11314.161005734604 -2292.4983655329834 -2343.7871258657924 1816.3222444822213 1431.6726140627043 -20453.131436438907
          -2750.217837944474 -3172.1230201489107 -28.47457445656346 -2930.158126352926 160.80667782313412 -20848.120341917558
          -1020.4324107754928 2584.2514115639733 -166.48806936792425 3240.272200395202 -1064.2159649110135 -1530.4297114534256
          -791.360041042808 64.92610481219799 -20757.497368124827 602.884960762899 -4700.3015618468135 1565.0576413457293
          -956.6256512173368 -994.0196040422643 3344.2354988287843 3946.812987925905 -1669.7191193819663 -20705.48648022279
          709.3360533129089 625.6397408225894 2822.60784119841 -1118.9745099642005 1612.0133551408844 -20953.31682097947
          4114.742837254535 -21058.91460676619 3536.4241492427846 2037.6517401339834 -219.9260677783559 2308.9970609729653
          -2895.7866819980745 -4166.425040086556 80.6715540856203 -916.3630581390407 2636.086487360635 -20748.56058834405
          -561.7163653619627 -21723.760179849094 -1551.3948560615154 98.03420675898906 157.83202107944362 -20450.530494123745
          -1805.609687339429 5264.604850508022 -701.9720522192347 -1694.0278710535722 132.50686911284902 -3271.2860863649803
          -52.558077984608644 -20574.472436201308 -939.6222468171209 -20879.08528049753 -335.0793935677211 3141.7873872633663
          158.17741401926014 -20565.47625946256 -215.62712856139115 -3120.668077378805 -664.4193816226789 -370.97409114454877
          81.10566644626942 361.1245670378639 -822.6592137575926 188.70139405883037 1593.537651078318 -20711.833203623537
          -821.6429412017851 -20756.603625222906 464.8990098780632 -1493.751721275803 -2297.1860464325027 -465.96387197347667
          173.28723332223035 -20590.88025642657 -2665.1026069494537 -975.3464607045817 -97.90144679610421 462.36378239775604
          524.4421668684436 3482.8031861121144 4081.849654674452 -4194.765134686104 -2312.5666403170635 170.69381579276978
          -37.90438423398882 4017.3848910332526 2075.3709988355376 -6663.905155629573 890.6460786650496 -4051.4756533453146
          1066.8121881312663 -20594.63032984263 -1076.627808224157 -1091.1443528471773 6363.381878077935 -1738.9714208639998
          -1567.5829164742072 -20473.153566382807 -12.745284216985056 -8833.642688618984 1500.3612006306366 -7808.691170643715
          -12.663513113461704 1028.8132345445729 -782.5423945809507 308.883460879847 20346.942261243148 7159.520256982241
          -539.5814872526307 299.90944833381036 -4062.493916264484 170.81432512954962 4893.702223182918 -596.2679488540152
          136.70557038371498 -20637.127225648605 -703.434741921742 -975.078412282619 -518.2583998978953 -1795.1968436622246
          -23085.21320445816 1866.2213189513432 5519.51193357716 -1192.2225210551915 2453.3106259423994 -2308.7002481290483
          -21657.834091754346 507.4143023203169 822.1502605975093 3597.692214865192 -297.2257289781919 -114.92797725753462
          -2116.599786906263 1719.099592701632 590.6604975341452 -1157.1217811138604 1612.425265268148 -392.60972636952374
          411.36884989826285 157.8350392720813 -155.3906206952297 -238.5891623094858 1766.2364924138183 3286.417505142663
          2045.5769713109157 577.2198154853731 -1954.187600474661 -577.4783326184752 -5631.608100051058 -433.9300579614064
          -2159.1712825782315 -1868.6531129545847 838.8514972416806 -1348.6727922738555 -20434.48431414555 1770.989491603873
          -2609.1913840105053 -1445.6598640854827 989.2010564952125 -38.40956342388836 591.6993716883235 -3618.117987188907
          -20483.44360392729 -1300.5660025586167 290.5444335813627 1698.0330227622244 -1655.519580263599 22.211096698069923
          666.2754756814184 6852.282404416719 1251.8761421182035 -1562.3865568491647 1898.826783931022 -1855.6189398882043
          -5661.821476893451 -1098.7204102506485 3985.443861998665 -135.2415328132247 3736.354323294472 -1900.174252945335
          7417.517112352425 -1104.6615656126141 -887.4210930714708 -641.0227855820767 1750.333447909352 3569.821893220378
          -1525.5260683573124 -716.2572424415112 -1024.556341503726 -193.56094254298569 -1284.0772269442596 549.4656989049736
          2172.9646929600904 3149.6294765791026 -585.3295371276909 -386.13569730305244 -377.477241124634 -2223.168378507412
          -7493.841280273064 1018.7802830909868 -734.898331344707 -715.7782583001517 -3236.1118156384373 2494.557246133286
          -4841.50533270978 -4.653892825645016 -1751.3036830554802 -1900.1639137846769 -5527.825729400006 -955.8770449632766
          2052.887254609491 157.99790256467077 -1861.2133951811893 -65.61150441807058 -1892.458513619631 -469.906611676206
          4035.9370654185113 1464.1010326961168 -718.719817972592 752.0023223730914 1513.4738868920203 -3656.2128309255377
          1203.972241236629 733.6689124739178 701.0951006892583 10914.130858703174 -70.27170674866738 -2369.258623788892
          -1900.4766362989767 4599.147085978439 -517.1134489735823 -335.22516667665514 -879.3735487182676 -4722.084657796872
          -2704.556280643701 930.3351323320521 -716.6355500485042 -2574.430095040616 1200.4596700871161 823.8719584861246
          -139.87117724311247 -918.0020559492914 -467.44820041348703 -4213.552394838157 6473.014262119887 978.8023874069859
          -2223.6302853768484 9440.808182857918 1328.073956111266 -1943.7724225238617 -716.1671884486259 -2005.6592860492447
          4079.4347022562943 11162.677261906938 -6.5359304161984255 878.6242590840948 -1900.4149291427075 -3009.9743371860677
          1862.0337887863889 250.4558194344463 3691.4529938575015 2844.11879784951 2622.5795590611824 -1313.7067028157708
          -572.0273617972225 -1297.6978410916854 -1357.454011985733 -21062.393940124424 804.9856557547309 -4834.4050115601885
          -1540.0225913132317 2673.156756074145 -543.4599254028171 -20827.24205458429 446.63151576762175 -1254.0714923733094
          -2146.4050531323574 1232.374230343712 -406.1518662191065 3667.2317118339015 540.8451216705362 -751.2062915734487
          2255.770133692954 -1622.3245020168451 1705.4364236053652 -246.7875999720718 1488.8200349547333 2360.249168056471
          5417.143217673802 1126.2360259104116 -3402.0952239149256 -3908.438901519571 -970.509902053409 -349.6330753475331
          221.28332885129566 -3620.551914152047 -1554.854497859883 5016.2139596970155 -757.7470174219752 -861.8136796708905
          1518.7343838522702 -20465.71273341804 2644.5606955103676 235.12645288841668 3321.9176918835274 -88.33786279684773
          1132.0987278395114 2728.1212425420426 4432.181972848866 -20491.275957501417 -1051.169303911447 -1109.047119449533
          1881.1339337722939 -1655.5924645573532 -3757.2849724423077 -2138.472821087853 1025.3078570178377 138.04991274846088
          -21053.08246845767 -980.1467329656543 -975.544994761176 1763.1207789340851 1408.04086914251 -3396.068638459442
          -6588.561983205195 2218.9218908154317 1602.396043081003 3436.0983544544615 170.98253714722432 -13.778865016911368
          -3913.6217290513923 1198.3581584197555 3703.761668499619 965.4256364697358 -8416.050745196575 -687.4286222599812
          -21171.482566456838 -643.8090686906708 -652.5935426803017 -4996.73022804363 1346.9166187046949 1925.5341047362845
          -27294.120102621837 -13.247255382898402 767.1411065952952 -4062.1581914049875 2004.1558522618561 2217.881848117172
          -1559.0236063467637 2290.4606928975863 309.0901967521995 -7275.602003513518 -3902.1115158761177 6818.856609344239
          -4463.214412223647 7498.058462886202 171.06165850999787 607.9696383112196 -608.5719112480683 137.49323778727558
          -20599.645105940126 -1805.5450068071696 -975.2507257251455 -3491.065021992704 209.06430746344995 1594.2761171545271
          -20870.850039030396 -1626.4528365672913 -22121.84567845345 2780.885411167492 -2112.963149226034 -215.8301754217473
          7.459187274507713 -2276.147288977695 -1154.2423213272878 79.64389675493294 314.17409795518324 970.0413075152028
          -20995.542179956516 -617.8593070034094 -20604.918968605656 -1261.1790700219444 451.37968943778105 156.92670827462734
          -22528.06464619973 739.5772937234005 -1669.0502241081685 -885.9206069950915 -3877.17424443817 2896.0532148571565
          5376.601079140819 2247.656783168386 -22605.314795174603 -1017.3517107908901 -20721.15122501737 1180.198328005381
          1699.950052354452 157.4646254718391 -22858.585859512546 -215.69753015123752 3160.5356282618595 -642.7518449663876
          -6967.943671778148 80.25743464499556 445.77480636687596 -1724.335417112261 1496.6271512418552 1593.9526458296996
          -20557.351144031512 -5230.9988219049865 -20477.80828355582 1518.2677091014693 -4098.487280132927 -2340.2509152838775
          2232.4403768100365 603.3477444611253 -20804.147782454413 -4419.777142124194 -1500.7724367142237 -103.75114527044389
          -2034.4083413766884 -20739.07908207719 5313.008737329355 312.4457751757973 2173.667156068127 1783.899741415812
          298.8998311164323 4391.375868691193 84.10297037578857 -2878.708769433092 3317.9899232660864 306.3078469300308
          -1188.2714014473459 4654.7690171545855 -21407.692681887835 3059.8677855042115 -5727.680174707175 540.0167476337583
          -933.9305753467352 831.0336691427119 -23058.280078569183 -8992.67947288392 137.13873525804047 -4896.987223738956
          -2929.407330933518 -3687.399665275261 -1187.6933991851047 2221.3438492512023 229.47382779302188 -20619.17873454468
          -521.2758917384463 -1550.4709282545582 2515.7790199241435 -1584.690545817075 -4145.34612343828 459.7865351864539
          859.476478606939 -1353.1100635867278 -20524.139987887535 7298.759293863168 -2365.9685119146707 -271.516890761186
          1174.7463132856728 -1715.1708712249228 -49077.60122895005 4902.416443155698 -49077.275854295935 1828.239172604981
          -1723.0083280304552 2498.9527877388355 154.82057490357874 2711.8529789007607 -441.7172004267604 130.53574218485664
          -2136.337809612328 -8072.510966022942 -49092.5877608045 -1412.85788564016 86.83755555883636 -51233.08954094556
          1.4080171730574875 1654.3898796525355 -49080.955568419995 -1756.4681175006444 916.1937940850567 -51265.964822349924
          922.7977497580605 -51242.735019443884 96.28706346348281 -1712.6231681144782 -49092.58776068842 -425.24018496047574
          109.55103632096325 -51233.08954182798 -12.184893049520724 663.7755158851633 -49080.95556839165 -220.11015087433861
          154.59494537476075 -1288.3512537024217 -591.4603033036065 65.09401376573805 -498.77544683085944 9633.798522516017
          -247.41188311092628 854.4905858712855 -49077.60122914967 -6111.166461143675 -49077.275854522115 1837.6842350438847
          559.4648443683809 862.8913368883286 -2085.3931247405126 -2068.733816903864 -2384.135303112689 967.5729213977684
          356.8750302439548 7740.711505964846 1048.391136518976 -4396.785192990792 1321.9155346366324 -3889.6004141433923
          3389.9444713203957 3791.906177774472 -188.09680076522454 -2196.0877582772673 1015.7600477785354 -694.9908906687324
          -775.8634769963828 -2505.20479832242 -1511.2120468337207 -250.25091833117585 10902.995820005926 -882.8300041797047
          -13617.776469941695 6209.741936789615 -11060.008902306505 110.11643596998965 -4754.319036849174 -1685.9977533823485
          2356.6960855580874 428.62925869491846 -1895.9515637107188 -1078.8105676303167 1811.9521075129705 583.0934741929514
          -9498.516242281166 -11417.764629449652 -2281.4725013123734 -10240.18660557436 -1253.9057642431044 6696.37127535414
          53.011937029918954 -5422.704019003104 -3438.9248823856997 3599.8071729229287 -3529.827978519047 2183.994631683913
          -2307.1047687405735 -4134.197563602893
        </DataArray>
        <DataArray type="Float64" Name="velocity" NumberOfComponents="3" format="ascii" RangeMin="15.177402976080396" RangeMax="32.19172242523852">
          0.0014603287143348858 -0.3028339712818022 -23.602930025111434 0.3078731410792897 0.09376706291649547 -23.283192249876038
          -0.07820570331815921 0.29770817336162897 -22.959861830206073 0.12386227101213453 -0.3433167618328194 -23.49090254637054
          0.0973639448314479 -0.2941370461211755 -23.486845632317106 0.024023280888717722 -0.1439956979467722 -23.460475390777884
          -0.31737469650348077 -0.1483690916479266 -22.414721199005825 -0.09206010648638223 0.16289508880217304 -23.155723384977367
          -0.0658075340322467 0.4637047715225735 -23.881698759036922 -0.21794580212523382 0.04988768402565869 -23.62663276044888
          0.2729335278456322 -0.2789058886133462 -23.20026646829225 -0.30793411558834416 -0.04266189626697609 -23.75193555239367
          0.2511486212467209 -0.1393232793995006 -23.765210809622502 -0.2362887379424062 0.0769391548128452 -23.195119231511992
          -0.03008821097125331 -0.17082580148262397 -23.46766251427543 0.24027845674090917 0.2504620653101926 -23.750427831044338
          0.32381782969299205 0.05300671815025385 -23.395455860012955 -0.07318910492866967 -0.01864513271962784 -23.640088624467083
          0.5335379711098237 -0.029037578768027275 -23.481565911060795 0.31813707494254134 -0.5871190856657794 -24.003544174661016