<?xml version="1.0"?>
<VTKFile type="PolyData" version="0.1" byte_order="LittleEndian">
  <PolyData>
    <Piece NumberOfPoints="396" NumberOfVerts="396" NumberOfLines="0" NumberOfStrips="0" NumberOfPolys="0">
      <Points>
        <DataArray type="Float64" NumberOfComponents="3" format="ascii">
          -0.286054 -0.163701 7.657798
          -0.529452 -0.085696 7.821595
          -0.191351 -0.239375 7.521631
          0.755448 1.799351 -0.500000
          -0.337773 -0.483899 1.864708
          0.696709 0.416753 7.572862
          0.590166 1.760818 -0.472707
          -0.504596 -1.587906 7.269218
          -0.356704 -0.276981 7.587108
          1.271839 -0.341342 1.852815
          0.190646 -0.373963 1.864555
          -0.227379 -0.326755 7.275956
          0.196105 2.233777 7.668100
          -0.102087 -0.134982 7.691617
          0.405868 -0.577960 1.854442
          0.230317 2.313724 7.653082
          -0.570137 0.170765 7.701165
          1.582357 -0.157901 1.855725
          -0.673003 -1.676004 7.234961
          -0.869350 0.584399 7.506192
          -0.759438 1.085857 0.313815
          -0.432365 -1.642698 7.309960
          0.719132 0.308608 7.680192
          1.594697 -0.228293 1.848902
          -0.037724 -0.859355 1.864916
          0.265266 2.390454 7.675957
          0.364503 0.357078 7.310102
          0.335877 -0.577659 1.851281
          -0.987926 1.547719 1.011470
          -0.332194 0.321959 7.623809
          -0.046601 -0.764765 1.845346
          -0.464543 -0.108755 7.622038
          -0.331058 -0.369356 7.315914
          -0.085632 -0.657729 1.864708
          -0.891433 1.556683 1.022951
          0.815210 -1.700541 7.687855
          1.517368 -0.190379 1.863434
          -0.885533 0.482791 7.543165
          -0.182292 -0.450993 7.295558
          -0.637850 0.233584 7.476816
          -0.435620 -1.703090 7.338617
          -0.726687 -1.717157 7.302715
          -1.596572 -0.336051 1.861075
          -0.227676 -0.402020 7.250494
          0.617911 -1.990696 7.856489
          1.239694 -0.500234 1.855624
          0.111918 0.343724 7.832867
          -0.580568 -1.902990 7.431248
          -0.661703 -1.602953 7.220033
          0.091552 0.196426 7.828018
          -0.794314 1.598859 1.016708
          -1.455402 -0.030564 1.854444
          0.623388 0.076863 7.731754
          -0.614456 0.205063 7.501645
          -0.669178 0.152463 7.526696
          -0.384005 0.341320 7.576934
          -0.545715 -1.983683 7.463850
          -0.824952 1.085741 0.325128
          -0.372033 0.308074 7.546961
          0.199448 0.482062 7.865220
          -1.485596 -0.091508 1.865645
          0.356754 0.134464 7.845947
          0.486077 1.138584 7.631467
          1.454257 -0.412208 1.865139
          -0.231942 -0.359000 7.292225
          -0.686889 0.368709 7.441305
          1.584592 -0.238912 1.864708
          0.811601 0.307655 7.604469
          -0.227067 -0.426762 7.350265
          -0.337905 -1.927341 7.485305
          -0.840327 0.502571 7.569535
          0.246769 2.421217 7.665268
          4.937152 -1.596113 5.512135
          0.343622 0.201490 7.758934
          1.381566 -0.306388 1.856786
          1.640430 -0.192109 1.853095
          -1.432364 -0.147929 1.864708
          3.587296 0.296138 5.167661
          0.398027 0.169034 7.556905
          -0.672425 -0.037641 7.804077
          0.117622 0.229690 7.812064
          -0.763734 0.311654 7.447897
          -0.830298 1.544457 1.026036
          -0.899415 0.453677 7.613211
          0.455036 0.460901 7.938814
          -0.123481 -0.783350 1.864708
          0.651825 -1.838506 7.874835
          0.465836 1.316400 7.768882
          0.518702 0.116455 7.424613
          -0.849955 1.545688 0.994929
          0.624154 1.179274 7.673211
          0.671703 1.618880 -0.481595
          0.562542 1.189394 7.651565
          0.785000 -1.649668 7.616367
          -0.309460 -0.296647 7.672392
          -0.425945 -2.017522 7.552484
          0.278468 0.143703 7.722301
          -0.496942 -2.000920 7.563770
          -0.026484 0.228620 7.615550
          0.738982 0.338865 7.531119
          0.395389 -0.548611 1.852124
          -0.412662 -1.962923 7.642374
          3.220789 1.356330 5.521122
          0.139574 2.261903 7.882427
          1.476635 -0.184426 1.846656
          1.238554 -0.502581 1.855713
          -0.745328 1.028154 0.260215
          3.693894 0.147195 5.168165
          -0.206380 -0.402438 7.245283
          -0.514943 -1.559825 7.272282
          -0.745055 1.042692 0.283739
          -0.502255 -1.603056 7.399180
          -0.533341 0.137456 7.622537
          -0.921029 1.519455 1.056619
          -1.407563 -0.059270 1.850347
          0.337943 -0.560028 1.849551
          -0.160885 -0.068433 7.760181
          -0.145641 -0.368384 1.865332
          0.000785 -0.189350 1.847370
          -0.669143 -0.007349 7.748982
          -0.949274 0.538549 7.467838
          -0.714453 -0.019610 7.766518
          -0.159811 0.015148 7.551152
          -0.403330 -0.146192 7.691606
          -0.647605 -0.008119 7.772274
          0.166018 0.177432 7.850407
          -0.675869 -1.673082 7.320205
          -0.394953 0.087850 7.595026
          0.471998 0.521145 7.789152
          -0.518699 -1.774279 7.495907
          -0.780252 0.544627 7.578370
          -0.231873 -0.168001 7.800089
          -1.455095 -0.378593 1.857778
          -0.933191 1.586250 0.994431
          -0.631540 -0.434758 1.851488
          -0.091066 -0.773920 1.865343
          -0.736499 1.024883 0.223753
          -0.673769 0.311833 7.478417
          -0.949134 0.583438 7.457287
          -0.690462 0.306854 7.580432
          -0.065292 -0.792228 1.847730
          -0.713451 1.066505 0.186285
          -0.687921 -1.676936 7.267018
          0.095546 -0.708411 1.857896
          4.932540 -1.503504 5.493202
          -0.070221 -0.523902 1.861015
          -0.564770 -1.724976 7.285149
          0.409779 -0.611586 1.853163
          0.608219 0.390237 7.625244
          5.457603 -0.316553 5.150557
          0.367800 1.364079 7.730781
          1.336218 -0.502359 1.856126
          0.638112 0.360742 7.696048
          -0.703228 -1.726827 7.293819
          0.520286 0.131752 7.584540
          0.779362 1.832712 -0.435299
          -0.223343 -0.149777 7.733465
          -0.658056 -0.404311 1.858446
          0.375792 2.271526 7.716602
          0.733170 0.362883 7.511455
          -0.539400 -0.397244 1.857863
          -0.437957 -1.957356 7.518749
          -0.831420 1.546839 1.002110
          0.133842 2.362175 7.708972
          0.921276 -1.734082 7.639573
          -0.302091 -0.304450 7.715841
          -0.546866 -0.421624 1.864708
          0.588119 1.202880 7.662576
          -0.940709 0.480541 7.446829
          1.292790 -0.408320 1.864708
          0.473199 0.464087 7.811036
          0.475759 1.364556 7.825085
          0.801208 -1.775708 7.613177
          -0.225665 -0.505128 1.858298
          3.197614 1.402753 5.383277
          -0.691756 1.080174 0.296260
          0.476726 1.346918 7.707658
          -0.900734 1.564146 1.033373
          0.655197 -2.060705 7.743668
          3.668188 0.213754 5.170008
          1.329053 -1.059521 7.715737
          0.290579 0.239556 7.547892
          -0.388877 0.048261 7.502794
          -0.630414 -0.334121 1.853529
          0.696009 0.111157 7.750285
          0.456434 1.217221 7.735366
          -0.000001 -3.159937 6.063937
          0.409847 -0.602134 1.852208
          -0.146248 -0.133273 7.546616
          0.019689 -0.247067 1.854050
          0.603001 -2.012046 7.743023
          1.324102 0.231856 6.233335
          0.291866 2.204655 7.806063
          -0.238275 0.333543 7.541999
          0.267149 0.484293 7.882711
          0.496160 1.379173 7.817877
          -0.561533 -0.453580 1.866056
          0.579671 1.175888 7.648791
          0.755711 -1.646501 7.624429
          -0.658994 -0.409816 1.858115
          0.389499 0.097562 7.735508
          -0.373504 -0.588820 1.857714
          0.629816 1.790237 -0.483690
          -0.544035 -1.941650 7.629018
          0.000001 3.159937 6.063937
          -0.888726 1.501678 1.044871
          0.308587 0.412064 7.478396
          -0.537763 -0.454494 1.859399
          0.426045 1.475846 7.840799
          0.413860 1.331483 7.631424
          0.050399 1.966306 7.156169
          0.565322 0.259550 7.470065
          -0.562056 -0.369698 1.857382
          -0.127876 -0.277951 1.857742
          -0.000793 -0.763289 1.855639
          -0.420583 -1.956806 7.698677
          -3.575688 0.048405 5.530334
          0.253303 -0.630662 1.866344
          -0.449321 -2.039222 7.611496
          0.293110 -0.574124 1.853398
          -0.224211 0.240391 7.483535
          -3.570894 -0.026442 5.181336
          0.159333 2.218353 7.800726
          -1.434301 -0.095854 1.857052
          -0.228379 0.324310 7.511685
          0.660839 -1.913893 7.772408
          -0.621509 0.081262 7.815146
          -0.748449 1.103317 0.312809
          -0.163278 -0.401726 1.862039
          -0.022798 -0.244265 1.855980
          0.279885 2.390274 7.658496
          -0.284728 0.216331 7.429980
          -0.019296 -0.233464 1.844773
          -0.543333 -1.670951 7.526987
          0.730113 1.647427 -0.480211
          0.307212 0.309304 7.514493
          -0.365490 -1.753903 7.554572
          -0.484195 -0.032726 7.802296
          -0.525858 -0.329987 1.853370
          0.147242 2.229538 7.689320
          -0.940249 0.415858 7.488087
          -1.380332 -0.100819 1.864708
          -0.192135 0.254089 7.467111
          0.171602 2.362912 7.741827
          -0.391952 -1.974852 7.402275
          0.021847 -0.524226 1.860014
          -3.613652 -0.055091 5.563534
          0.702424 1.730315 -0.379676
          0.143749 2.328486 7.663998
          0.640070 1.773665 -0.500000
          -0.417459 -1.635522 7.487712
          -3.506250 -0.019029 5.174557
          -0.262971 -0.264255 7.667265
          0.642121 -2.041113 7.800678
          0.754408 1.751907 -0.465875
          0.459614 0.182378 7.335482
          1.655868 -0.271693 1.856015
          0.650038 1.794723 -0.482462
          1.346674 -0.500978 1.850193
          -0.080347 -0.188791 1.849904
          0.014548 -0.208271 1.849186
          0.818879 1.592093 -0.486523
          0.015107 -0.778008 1.856919
          0.406584 0.282084 7.253179
          0.810342 0.318405 7.591512
          -0.257727 -0.162493 7.754589
          -0.257858 0.271133 7.457541
          0.635362 0.110181 7.762988
          -0.247654 -0.441537 7.236076
          -0.670941 0.373196 7.445622
          0.767011 -2.002915 7.790272
          -0.031119 0.230425 7.614175
          0.278785 0.351483 7.955268
          0.890532 -1.622603 7.648819
          0.235176 0.354734 7.934093
          -0.279334 0.327582 7.645168
          1.286174 -0.520384 1.849219
          0.600692 1.590181 -0.495502
          -0.030603 -0.303048 1.859517
          -0.386606 -0.583336 1.856375
          0.654846 1.654522 -0.475232
          0.697518 0.346585 7.482586
          -0.664335 0.000314 7.645829
          0.382473 0.342569 7.511741
          1.557636 -0.202327 1.848251
          0.374851 0.352764 7.249931
          0.440824 0.500797 7.879323
          0.353071 -0.636486 1.857853
          -3.540127 0.045874 5.546289
          0.651704 -1.996686 7.746713
          -1.582021 -0.135777 1.858217
          -1.602221 -0.436875 1.860722
          1.232879 -0.530459 1.855973
          -3.558479 -0.026491 5.173299
          0.642833 0.237132 7.789729
          0.351972 0.392134 7.414170
          0.685324 0.084770 7.613446
          0.025153 0.312015 7.751958
          0.692460 1.816344 -0.394122
          0.426933 0.115428 7.829820
          -0.213915 -0.382856 7.239847
          0.098223 -0.498847 1.854346
          -0.701367 -1.643121 7.418990
          -0.900904 0.530907 7.416812
          -0.288893 0.358783 7.510643
          0.602504 1.725325 -0.491647
          0.502116 0.354146 7.292321
          -0.760787 1.095542 0.302699
          0.434956 1.413578 7.778664
          -0.360938 -1.959923 7.529280
          0.379817 0.344783 7.580728
          0.775296 -1.932065 7.707614
          0.476857 0.205410 7.290757
          0.654583 -1.997440 7.817454
          0.533770 0.272675 7.750179
          0.628410 0.185794 7.408658
          1.633459 -0.271172 1.852564
          0.843984 -1.915298 7.646083
          -3.599229 0.025366 5.530702
          0.489502 1.200709 7.811148
          -1.495924 -0.348176 1.859638
          -1.565024 -0.414056 1.857193
          1.646599 -0.232131 1.853978
          -3.567465 0.007409 5.181828
          -1.510068 -0.376416 1.859065
          0.509433 0.445289 7.797247
          -0.093950 0.158580 7.674677
          0.289581 0.447268 7.910791
          0.657585 -1.900114 7.936318
          0.058513 0.260992 7.757135
          1.259584 -0.498057 1.856848
          0.321818 2.257305 7.730329
          -0.467075 -1.689793 7.304870
          -1.561860 -0.447565 1.860699
          -0.556879 0.021985 7.781446
          0.880094 -1.673939 7.694578
          0.609435 -1.971617 7.826545
          -0.646199 -1.701127 7.213887
          0.279274 0.465752 7.890585
          -0.297125 -0.579507 1.857915
          0.016510 0.236612 7.759046
          0.367689 0.216976 7.271034
          -0.760665 0.237038 7.433610
          -1.632236 -0.267437 1.858981
          0.765782 -1.631075 7.758384
          -0.192178 -0.160711 7.509081
          -0.904674 0.460688 7.608112
          0.333553 0.092021 7.789390
          1.410117 -0.525719 1.855949
          0.501272 0.394437 7.318614
          0.201010 2.249591 7.822626
          -1.449353 -0.255018 1.858510
          -0.382915 0.233620 7.472963
          0.257894 0.351919 7.391170
          -1.687611 -0.318301 1.851453
          0.350068 0.497048 7.852898
          -0.137665 0.125303 7.743907
          0.836816 -1.766710 7.635117
          0.484269 0.380395 7.246128
          0.615082 1.193323 7.673563
          0.436130 0.486698 7.753741
          0.341966 0.119452 7.552887
          -0.718463 0.255593 7.606660
          -0.926318 1.545057 1.048885
          -0.217207 -0.266567 1.861140
          -0.963971 0.435954 7.613256
          -0.721374 1.049388 0.235507
          0.771225 -1.654422 7.701010
          0.652793 0.114192 7.735781
          -1.608710 -0.134952 1.858137
          -0.010820 -0.846365 1.854073
          -0.547918 0.020085 7.806190
          0.414766 1.472739 7.835450
          0.174725 0.462778 7.887839
          -0.388340 -0.490913 1.858369
          0.374365 1.243021 7.864453
          -0.214586 -0.382335 7.246863
          -1.544579 -0.394963 1.859576
          0.730778 -1.588289 7.680814
          0.865450 -1.703776 7.627990
          0.643357 1.830188 -0.462587
          0.530940 -1.942659 7.822559
          0.566131 0.186666 7.305747
          -1.540636 -0.127056 1.853616
          0.470460 -0.527448 1.850817
          0.195732 2.177326 7.746136
          -0.666457 -0.014731 7.655306
          0.069228 -0.573731 1.848607
          0.764270 1.608067 -0.483236
          -0.089563 0.202205 7.706076
          -0.333091 -0.396979 7.289275
          -0.512414 0.009770 7.824789
          -0.288848 -0.184077 7.519520
          0.452089 -0.546169 1.864708
          0.711036 1.712766 -0.403151
          -0.333869 -1.952353 7.472044
        </DataArray>
      </Points>
      <PointData Scalars="density">
        <DataArray type="Float64" Name="density" format="ascii">
          1166.909833
          952.539927
          931.886243
          1114.547327
          941.968133
          889.320481
          1115.074419
          949.390284
          832.695234
          811.875882
          690.711056
          962.999850
          1057.088558
          778.740283
          983.002581
          1072.931579
          1066.402519
          879.347041
          965.062259
          905.277067
          860.318314
          883.330107
          1001.816875
          958.755289
          769.475807
          950.888667
          1031.498056
          1055.421994
          829.653992
          930.901963
          986.158102
          996.113152
          902.281420
          1057.971244
          967.022461
          1083.481917
          927.433043
          1110.593922
          899.440989
          973.531027
          995.513592
          888.813790
          1088.425121
          967.838859
          998.095775
          861.606625
          1008.004012
          899.814779
          900.936507
          941.157077
          868.377626
          792.340301
          813.949299
          998.557865
          976.423620
          950.739575
          868.308504
          776.235570
          1066.117896
          890.594710
          978.279427
          833.790770
          797.678819
          985.603990
          1004.428307
          939.562040
          976.108662
          789.168238
          938.355740
          902.109031
          1059.538659
          858.402303
          500.000000
          1149.868441
          952.812728
          870.962738
          1050.073090
          500.000000
          1108.278501
          960.004762
          1055.913821
          1004.239115
          926.505211
          987.999814
          834.422111
          890.081300
          849.254910
          1138.180644
          844.768816
          946.424613
          795.058302
          1060.127869
          900.130052
          976.956169
          902.164755
          961.898345
          989.054373
          968.122158
          917.170198
          912.880299
          996.794133
          882.069248
          500.000000
          752.091353
          893.391274
          858.506269
          849.255888
          500.000000
          931.233414
          894.221437
          872.773053
          992.849474
          1155.927486
          930.750160
          766.944016
          1048.653343
          838.634994
          1011.718401
          787.378114
          1074.549631
          896.492751
          908.991097
          847.101023
          1100.310302
          1092.663164
          925.412370
          1074.003361
          1029.482104
          871.211423
          1074.976733
          884.279679
          860.033972
          959.433967
          902.044974
          892.700648
          948.635278
          814.305258
          985.805789
          835.673347
          1013.161598
          944.787649
          776.040554
          1010.528567
          973.879358
          500.000000
          1028.937267
          1152.181973
          941.580404
          1071.799615
          500.000000
          911.925308
          927.815408
          1068.478473
          947.030302
          1116.824782
          940.399058
          1046.594057
          846.964834
          800.191192
          833.959345
          1021.527734
          1075.482706
          901.166003
          998.757185
          867.400913
          797.070602
          1024.797040
          873.411946
          953.888542
          920.120397
          978.698413
          1016.913896
          1019.728243
          932.135773
          500.000000
          830.640357
          1122.709081
          958.031519
          913.210602
          500.000000
          500.000000
          1009.386159
          777.850388
          807.618498
          779.863604
          1073.346077
          500.000000
          967.708085
          848.408442
          886.290790
          969.272662
          500.000000
          864.576556
          1070.328138
          989.190005
          940.462554
          1021.518069
          893.958202
          930.243218
          817.541216
          928.462298
          794.739000
          1144.843893
          804.840418
          500.000000
          928.632828
          819.888393
          1035.138852
          727.196023
          905.048182
          500.000000
          1262.044520
          970.811904
          950.616710
          1023.120660
          682.108111
          500.000000
          1020.720676
          850.639908
          1056.544031
          1078.664461
          500.000000
          914.824649
          907.723225
          1041.487689
          1144.120495
          1015.827166
          850.248784
          1000.600791
          951.802464
          904.023606
          916.618715
          928.916293
          770.664251
          1186.459911
          1024.026631
          748.826652
          1066.424281
          881.675964
          1001.253904
          986.411350
          783.298263
          1002.362424
          1032.132713
          821.271896
          994.528015
          500.000000
          1068.695933
          987.263046
          1216.987086
          698.473177
          500.000000
          1010.119413
          976.087765
          1210.822508
          1052.219923
          829.841388
          1155.830744
          938.959369
          813.775886
          823.278101
          782.968397
          960.264781
          989.741066
          786.588214
          1021.319487
          1021.510147
          846.086776
          906.894632
          933.684200
          932.772004
          899.576880
          954.000247
          879.243640
          981.130161
          948.663465
          916.638057
          905.443892
          1021.930729
          769.577083
          1212.348255
          904.086124
          1034.358158
          1152.933766
          957.016976
          895.319082
          919.025397
          996.557780
          500.000000
          1046.367855
          1006.178810
          811.163715
          821.838834
          500.000000
          945.309324
          1017.784554
          780.944595
          931.061247
          1021.552664
          814.449044
          938.562744
          939.878858
          857.838262
          856.587642
          987.088664
          1229.298584
          970.327945
          846.377325
          938.722089
          958.227030
          1107.486754
          1035.547554
          973.140004
          1046.796353
          1202.888840
          872.260646
          917.685133
          798.706509
          500.000000
          951.516121
          1099.056610
          963.057278
          879.993617
          500.000000
          1042.574175
          963.122801
          958.751149
          1036.363319
          771.863729
          1008.250514
          900.779223
          935.447944
          1051.817920
          847.617306
          1146.499843
          980.901059
          1037.005529
          951.431048
          1065.370613
          809.288542
          959.897025
          892.174893
          803.223002
          1061.178395
          871.119145
          873.635435
          948.314740
          823.636105
          821.546684
          954.004495
          987.341588
          1118.149232
          1030.957320
          837.790111
          800.454958
          1047.157872
          805.270659
          1033.721375
          825.264953
          836.891370
          953.167962
          885.460735
          976.624388
          949.609922
          788.876894
          805.302305
          840.958712
          989.056828
          851.067917
          945.043250
          827.046649
          1087.311154
          695.193664
          890.353630
          973.495641
          743.003995
          939.644513
          1019.384583
          783.099665
          983.932808
          1112.994651
          827.864965
          836.715880
          1060.860882
          821.347362
          925.014732
          1033.433024
          1006.942089
          964.978220
          960.620573
          873.587921
          997.837718
          968.624519
          864.108847
          1160.231869
          870.699568
        </DataArray>
        <DataArray type="Float64" Name="pressure" format="ascii">
          5007.294998
          -1423.802202
          -2043.412703
          3436.419822
          -1740.955998
          -3320.385560
          3452.232561
          -1518.291469
          -5019.142971
          -5643.723539
          -9278.668328
          -1110.004502
          1712.656728
          -6637.791508
          -509.922578
          2187.947379
          1992.075578
          -3619.588772
          -1048.132239
          -2841.687992
          -4190.450573
          -3500.096795
          54.506252
          -1237.341332
          -6915.725775
          -1473.339999
          944.941682
          1662.659816
          -5110.380246
          -2072.941117
          -415.256927
          -116.605454
          -2931.557388
          1739.137305
          -989.326161
          2504.457520
          -2177.008725
          3317.817666
          -3016.770334
          -794.069184
          -134.592225
          -3335.586294
          2652.753643
          -964.834227
          -57.126751
          -4151.801256
          240.120371
          -3005.556621
          -2971.904793
          -1765.287705
          -3948.671230
          -6229.790979
          -5581.521020
          -43.264060
          -707.291388
          -1477.812755
          -3950.744883
          -6712.932903
          1983.536878
          -3282.158703
          -651.617181
          -4986.276894
          -6069.635425
          -431.880287
          132.849204
          -1813.138789
          -716.740131
          -6324.952857
          -1849.327800
          -2936.729063
          1786.159758
          -4247.930898
          -15000.000000
          4496.053230
          -1415.618156
          -3871.117846
          1502.192695
          -15000.000000
          3248.355043
          -1199.857137
          1677.414632
          127.173462
          -2204.843664
          -360.005594
          -4967.336684
          -3297.561002
          -4522.352691
          4145.419318
          -4656.935532
          -1607.261603
          -6148.250931
          1803.836073
          -2996.098443
          -691.314936
          -2935.057336
          -1143.049654
          -328.368803
          -956.335246
          -2484.894059
          -2613.591015
          -96.176008
          -3537.922574
          -15000.000000
          -7437.259409
          -3198.261787
          -4244.811926
          -4522.323354
          -15000.000000
          -2062.997593
          -3173.356875
          -3816.808410
          -214.515781
          4677.824593
          -2077.495206
          -6991.679530
          1459.600293
          -4840.950190
          351.552037
          -6378.656580
          2236.488924
          -3105.217474
          -2730.267081
          -4586.969313
          3009.309071
          2779.894915
          -2237.628896
          2220.100817
          884.463124
          -3863.657299
          2249.301992
          -3471.609628
          -4198.980832
          -1216.980999
          -2938.650774
          -3218.980560
          -1540.941675
          -5570.842249
          -425.826318
          -4929.799583
          394.847945
          -1656.370543
          -6718.783386
          315.856995
          -783.619247
          -15000.000000
          868.118022
          4565.459199
          -1752.587870
          2153.988458
          -15000.000000
          -2642.240768
          -2165.537771
          2054.354184
          -1589.090950
          3504.743450
          -1788.028275
          1397.821716
          -4591.054988
          -5994.264243
          -4981.219654
          645.832018
          2264.481185
          -2965.019925
          -37.284440
          -3977.972609
          -6087.881952
          743.911197
          -3797.641627
          -1383.343732
          -2396.388077
          -639.047598
          507.416870
          591.847280
          -2035.926820
          -15000.000000
          -5080.789296
          3681.272444
          -1259.054440
          -2603.681945
          -15000.000000
          -15000.000000
          281.584785
          -6664.488350
          -5771.445060
          -6604.091877
          2200.382325
          -15000.000000
          -968.757461
          -4547.746741
          -3411.276313
          -921.820154
          -15000.000000
          -4062.703307
          2109.844154
          -324.299843
          -1786.123394
          645.542084
          -3181.253927
          -2092.703447
          -5473.763521
          -2146.131072
          -6157.830011
          4345.316793
          -5854.787458
          -15000.000000
          -2141.015174
          -5403.348197
          1054.165561
          -8184.119317
          -2848.554532
          -15000.000000
          7861.335613
          -875.642885
          -1481.498707
          693.619790
          -9536.756673
          -15000.000000
          621.620282
          -4480.802768
          1696.320918
          2359.933839
          -15000.000000
          -2555.260532
          -2768.303261
          1244.630665
          4323.614841
          474.814977
          -4492.536482
          18.023745
          -1445.926080
          -2879.291831
          -2501.438540
          -2132.511198
          -6880.072463
          5593.797333
          720.798917
          -7535.200453
          1992.728430
          -3549.721074
          37.617113
          -407.659491
          -6501.052125
          70.872716
          963.981394
          -5361.843108
          -164.159537
          -15000.000000
          2060.877977
          -382.108613
          6509.612567
          -9045.804676
          -15000.000000
          303.582379
          -717.367060
          6324.675252
          1566.597683
          -5104.758368
          4674.922333
          -1831.218934
          -5586.723420
          -5301.656982
          -6510.948099
          -1192.056580
          -307.768035
          -6402.353581