<?xml version="1.0"?>
<VTKFile type="PolyData" version="0.1" byte_order="LittleEndian">
  <PolyData>
    <Piece NumberOfPoints="396" NumberOfVerts="396" NumberOfLines="0" NumberOfStrips="0" NumberOfPolys="0">
      <Points>
        <DataArray type="Float64" NumberOfComponents="3" format="ascii">
          -1.382963 -0.682963 53.507620
          -1.382095 -0.682095 53.769971
          -1.382172 -0.682172 54.050590
          -1.382172 -0.682172 54.330575
          -1.382095 -0.682095 54.611194
          -1.382963 -0.682963 54.873545
          -1.382095 -0.420612 53.508487
          -1.381225 -0.420694 53.769888
          -1.381305 -0.420693 54.050591
          -1.381305 -0.420693 54.330574
          -1.381225 -0.420694 54.611277
          -1.382095 -0.420612 54.872678
          -1.382172 -0.139993 53.508411
          -1.381305 -0.139992 53.769890
          -1.381385 -0.139991 54.050591
          -1.381385 -0.139991 54.330574
          -1.381305 -0.139992 54.611275
          -1.382172 -0.139993 54.872754
          -1.382172 0.139993 53.508411
          -1.381305 0.139992 53.769890
          -1.381385 0.139991 54.050591
          -1.381385 0.139991 54.330574
          -1.381305 0.139992 54.611275
          -1.382172 0.139993 54.872754
          -1.382095 0.420612 53.508487
          -1.381225 0.420694 53.769888
          -1.381305 0.420693 54.050591
          -1.381305 0.420693 54.330574
          -1.381225 0.420694 54.611277
          -1.382095 0.420612 54.872678
          -1.382963 0.682963 53.507620
          -1.382095 0.682095 53.769971
          -1.382172 0.682172 54.050590
          -1.382172 0.682172 54.330575
          -1.382095 0.682095 54.611194
          -1.382963 0.682963 54.873545
          -1.120612 -0.682095 53.508487
          -1.120694 -0.681225 53.769888
          -1.120693 -0.681305 54.050591
          -1.120693 -0.681305 54.330574
          -1.120694 -0.681225 54.611277
          -1.120612 -0.682095 54.872678
          -1.120694 -0.420694 53.509358
          -1.120783 -0.420783 53.769800
          -1.120781 -0.420781 54.050592
          -1.120781 -0.420781 54.330572
          -1.120783 -0.420783 54.611365
          -1.120694 -0.420694 54.871807
          -1.120693 -0.139992 53.509277
          -1.120781 -0.139990 53.769802
          -1.120779 -0.139990 54.050593
          -1.120779 -0.139990 54.330572
          -1.120781 -0.139990 54.611363
          -1.120693 -0.139992 54.871887
          -1.120693 0.139992 53.509277
          -1.120781 0.139990 53.769802
          -1.120779 0.139990 54.050593
          -1.120779 0.139990 54.330572
          -1.120781 0.139990 54.611363
          -1.120693 0.139992 54.871887
          -1.120694 0.420694 53.509358
          -1.120783 0.420783 53.769800
          -1.120781 0.420781 54.050592
          -1.120781 0.420781 54.330572
          -1.120783 0.420783 54.611365
          -1.120694 0.420694 54.871807
          -1.120612 0.682095 53.508487
          -1.120694 0.681225 53.769888
          -1.120693 0.681305 54.050591
          -1.120693 0.681305 54.330574
          -1.120694 0.681225 54.611277
          -1.120612 0.682095 54.872678
          -0.839993 -0.682172 53.508411
          -0.839992 -0.681305 53.769890
          -0.839991 -0.681385 54.050591
          -0.839991 -0.681385 54.330574
          -0.839992 -0.681305 54.611275
          -0.839993 -0.682172 54.872754
          -0.839992 -0.420693 53.509277
          -0.839990 -0.420781 53.769802
          -0.839990 -0.420779 54.050593
          -0.839990 -0.420779 54.330572
          -0.839990 -0.420781 54.611363
          -0.839992 -0.420693 54.871887
          -0.839991 -0.139991 53.509197
          -0.839990 -0.139990 53.769804
          -0.839990 -0.139990 54.050593
          -0.839990 -0.139990 54.330572
          -0.839990 -0.139990 54.611361
          -0.839991 -0.139991 54.871968
          -0.839991 0.139991 53.509197
          -0.839990 0.139990 53.769804
          -0.839990 0.139990 54.050593
          -0.839990 0.139990 54.330572
          -0.839990 0.139990 54.611361
          -0.839991 0.139991 54.871968
          -0.839992 0.420693 53.509277
          -0.839990 0.420781 53.769802
          -0.839990 0.420779 54.050593
          -0.839990 0.420779 54.330572
          -0.839990 0.420781 54.611363
          -0.839992 0.420693 54.871887
          -0.839993 0.682172 53.508411
          -0.839992 0.681305 53.769890
          -0.839991 0.681385 54.050591
          -0.839991 0.681385 54.330574
          -0.839992 0.681305 54.611275
          -0.839993 0.682172 54.872754
          -0.560000 -0.682171 53.508412
          -0.560000 -0.681304 53.769890
          -0.560000 -0.681384 54.050591
          -0.560000 -0.681384 54.330574
          -0.560000 -0.681304 54.611275
          -0.560000 -0.682171 54.872753
          -0.560000 -0.420693 53.509278
          -0.560000 -0.420781 53.769802
          -0.560000 -0.420778 54.050593
          -0.560000 -0.420778 54.330572
          -0.560000 -0.420781 54.611363
          -0.560000 -0.420693 54.871887
          -0.560000 -0.139991 53.509198
          -0.560000 -0.139990 53.769804
          -0.560000 -0.139990 54.050593
          -0.560000 -0.139990 54.330572
          -0.560000 -0.139990 54.611361
          -0.560000 -0.139991 54.871967
          -0.560000 0.139991 53.509198
          -0.560000 0.139990 53.769804
          -0.560000 0.139990 54.050593
          -0.560000 0.139990 54.330572
          -0.560000 0.139990 54.611361
          -0.560000 0.139991 54.871967
          -0.560000 0.420693 53.509278
          -0.560000 0.420781 53.769802
          -0.560000 0.420778 54.050593
          -0.560000 0.420778 54.330572
          -0.560000 0.420781 54.611363
          -0.560000 0.420693 54.871887
          -0.560000 0.682171 53.508412
          -0.560000 0.681304 53.769890
          -0.560000 0.681384 54.050591
          -0.560000 0.681384 54.330574
          -0.560000 0.681304 54.611275
          -0.560000 0.682171 54.872753
          -0.280000 -0.682171 53.508412
          -0.280000 -0.681304 53.769890
          -0.280000 -0.681384 54.050591
          -0.280000 -0.681384 54.330574
          -0.280000 -0.681304 54.611275
          -0.280000 -0.682171 54.872753
          -0.280000 -0.420693 53.509278
          -0.280000 -0.420781 53.769802
          -0.280000 -0.420778 54.050593
          -0.280000 -0.420778 54.330572
          -0.280000 -0.420781 54.611363
          -0.280000 -0.420693 54.871887
          -0.280000 -0.139991 53.509198
          -0.280000 -0.139990 53.769804
          -0.280000 -0.139990 54.050593
          -0.280000 -0.139990 54.330572
          -0.280000 -0.139990 54.611361
          -0.280000 -0.139991 54.871967
          -0.280000 0.139991 53.509198
          -0.280000 0.139990 53.769804
          -0.280000 0.139990 54.050593
          -0.280000 0.139990 54.330572
          -0.280000 0.139990 54.611361
          -0.280000 0.139991 54.871967
          -0.280000 0.420693 53.509278
          -0.280000 0.420781 53.769802
          -0.280000 0.420778 54.050593
          -0.280000 0.420778 54.330572
          -0.280000 0.420781 54.611363
          -0.280000 0.420693 54.871887
          -0.280000 0.682171 53.508412
          -0.280000 0.681304 53.769890
          -0.280000 0.681384 54.050591
          -0.280000 0.681384 54.330574
          -0.280000 0.681304 54.611275
          -0.280000 0.682171 54.872753
          0.000000 -0.682171 53.508412
          0.000000 -0.681304 53.769890
          0.000000 -0.681384 54.050591
          0.000000 -0.681384 54.330574
          0.000000 -0.681304 54.611275
          0.000000 -0.682171 54.872753
          0.000000 -0.420693 53.509278
          0.000000 -0.420781 53.769802
          0.000000 -0.420778 54.050593
          0.000000 -0.420778 54.330572
          0.000000 -0.420781 54.611363
          0.000000 -0.420693 54.871887
          0.000000 -0.139991 53.509198
          0.000000 -0.139990 53.769804
          0.000000 -0.139990 54.050593
          0.000000 -0.139990 54.330572
          0.000000 -0.139990 54.611361
          0.000000 -0.139991 54.871967
          0.000000 0.139991 53.509198
          0.000000 0.139990 53.769804
          0.000000 0.139990 54.050593
          0.000000 0.139990 54.330572
          0.000000 0.139990 54.611361
          0.000000 0.139991 54.871967
          0.000000 0.420693 53.509278
          0.000000 0.420781 53.769802
          0.000000 0.420778 54.050593
          0.000000 0.420778 54.330572
          0.000000 0.420781 54.611363
          0.000000 0.420693 54.871887
          0.000000 0.682171 53.508412
          0.000000 0.681304 53.769890
          0.000000 0.681384 54.050591
          0.000000 0.681384 54.330574
          0.000000 0.681304 54.611275
          0.000000 0.682171 54.872753
          0.280000 -0.682171 53.508412
          0.280000 -0.681304 53.769890
          0.280000 -0.681384 54.050591
          0.280000 -0.681384 54.330574
          0.280000 -0.681304 54.611275
          0.280000 -0.682171 54.872753
          0.280000 -0.420693 53.509278
          0.280000 -0.420781 53.769802
          0.280000 -0.420778 54.050593
          0.280000 -0.420778 54.330572
          0.280000 -0.420781 54.611363
          0.280000 -0.420693 54.871887
          0.280000 -0.139991 53.509198
          0.280000 -0.139990 53.769804
          0.280000 -0.139990 54.050593
          0.280000 -0.139990 54.330572
          0.280000 -0.139990 54.611361
          0.280000 -0.139991 54.871967
          0.280000 0.139991 53.509198
          0.280000 0.139990 53.769804
          0.280000 0.139990 54.050593
          0.280000 0.139990 54.330572
          0.280000 0.139990 54.611361
          0.280000 0.139991 54.871967
          0.280000 0.420693 53.509278
          0.280000 0.420781 53.769802
          0.280000 0.420778 54.050593
          0.280000 0.420778 54.330572
          0.280000 0.420781 54.611363
          0.280000 0.420693 54.871887
          0.280000 0.682171 53.508412
          0.280000 0.681304 53.769890
          0.280000 0.681384 54.050591
          0.280000 0.681384 54.330574
          0.280000 0.681304 54.611275
          0.280000 0.682171 54.872753
          0.560000 -0.682171 53.508412
          0.560000 -0.681304 53.769890
          0.560000 -0.681384 54.050591
          0.560000 -0.681384 54.330574
          0.560000 -0.681304 54.611275
          0.560000 -0.682171 54.872753
          0.560000 -0.420693 53.509278
          0.560000 -0.420781 53.769802
          0.560000 -0.420778 54.050593
          0.560000 -0.420778 54.330572
          0.560000 -0.420781 54.611363
          0.560000 -0.420693 54.871887
          0.560000 -0.139991 53.509198
          0.560000 -0.139990 53.769804
          0.560000 -0.139990 54.050593
          0.560000 -0.139990 54.330572
          0.560000 -0.139990 54.611361
          0.560000 -0.139991 54.871967
          0.560000 0.139991 53.509198
          0.560000 0.139990 53.769804
          0.560000 0.139990 54.050593
          0.560000 0.139990 54.330572
          0.560000 0.139990 54.611361
          0.560000 0.139991 54.871967
          0.560000 0.420693 53.509278
          0.560000 0.420781 53.769802
          0.560000 0.420778 54.050593
          0.560000 0.420778 54.330572
          0.560000 0.420781 54.611363
          0.560000 0.420693 54.871887
          0.560000 0.682171 53.508412
          0.560000 0.681304 53.769890
          0.560000 0.681384 54.050591
          0.560000 0.681384 54.330574
          0.560000 0.681304 54.611275
          0.560000 0.682171 54.872753
          0.839993 -0.682172 53.508411
          0.839992 -0.681305 53.769890
          0.839991 -0.681385 54.050591
          0.839991 -0.681385 54.330574
          0.839992 -0.681305 54.611275
          0.839993 -0.682172 54.872754
          0.839992 -0.420693 53.509277
          0.839990 -0.420781 53.769802
          0.839990 -0.420779 54.050593
          0.839990 -0.420779 54.330572
          0.839990 -0.420781 54.611363
          0.839992 -0.420693 54.871887
          0.839991 -0.139991 53.509197
          0.839990 -0.139990 53.769804
          0.839990 -0.139990 54.050593
          0.839990 -0.139990 54.330572
          0.839990 -0.139990 54.611361
          0.839991 -0.139991 54.871968
          0.839991 0.139991 53.509197
          0.839990 0.139990 53.769804
          0.839990 0.139990 54.050593
          0.839990 0.139990 54.330572
          0.839990 0.139990 54.611361
          0.839991 0.139991 54.871968
          0.839992 0.420693 53.509277
          0.839990 0.420781 53.769802
          0.839990 0.420779 54.050593
          0.839990 0.420779 54.330572
          0.839990 0.420781 54.611363
          0.839992 0.420693 54.871887
          0.839993 0.682172 53.508411
          0.839992 0.681305 53.769890
          0.839991 0.681385 54.050591
          0.839991 0.681385 54.330574
          0.839992 0.681305 54.611275
          0.839993 0.682172 54.872754
          1.120612 -0.682095 53.508487
          1.120694 -0.681225 53.769888
          1.120693 -0.681305 54.050591
          1.120693 -0.681305 54.330574
          1.120694 -0.681225 54.611277
          1.120612 -0.682095 54.872678
          1.120694 -0.420694 53.509358
          1.120783 -0.420783 53.769800
          1.120781 -0.420781 54.050592
          1.120781 -0.420781 54.330572
          1.120783 -0.420783 54.611365
          1.120694 -0.420694 54.871807
          1.120693 -0.139992 53.509277
          1.120781 -0.139990 53.769802
          1.120779 -0.139990 54.050593
          1.120779 -0.139990 54.330572
          1.120781 -0.139990 54.611363
          1.120693 -0.139992 54.871887
          1.120693 0.139992 53.509277
          1.120781 0.139990 53.769802
          1.120779 0.139990 54.050593
          1.120779 0.139990 54.330572
          1.120781 0.139990 54.611363
          1.120693 0.139992 54.871887
          1.120694 0.420694 53.509358
          1.120783 0.420783 53.769800
          1.120781 0.420781 54.050592
          1.120781 0.420781 54.330572
          1.120783 0.420783 54.611365
          1.120694 0.420694 54.871807
          1.120612 0.682095 53.508487
          1.120694 0.681225 53.769888
          1.120693 0.681305 54.050591
          1.120693 0.681305 54.330574
          1.120694 0.681225 54.611277
          1.120612 0.682095 54.872678
          1.382963 -0.682963 53.507620
          1.382095 -0.682095 53.769971
          1.382172 -0.682172 54.050590
          1.382172 -0.682172 54.330575
          1.382095 -0.682095 54.611194
          1.382963 -0.682963 54.873545
          1.382095 -0.420612 53.508487
          1.381225 -0.420694 53.769888
          1.381305 -0.420693 54.050591
          1.381305 -0.420693 54.330574
          1.381225 -0.420694 54.611277
          1.382095 -0.420612 54.872678
          1.382172 -0.139993 53.508411
          1.381305 -0.139992 53.769890
          1.381385 -0.139991 54.050591
          1.381385 -0.139991 54.330574
          1.381305 -0.139992 54.611275
          1.382172 -0.139993 54.872754
          1.382172 0.139993 53.508411
          1.381305 0.139992 53.769890
          1.381385 0.139991 54.050591
          1.381385 0.139991 54.330574
          1.381305 0.139992 54.611275
          1.382172 0.139993 54.872754
          1.382095 0.420612 53.508487
          1.381225 0.420694 53.769888
          1.381305 0.420693 54.050591
          1.381305 0.420693 54.330574
          1.381225 0.420694 54.611277
          1.382095 0.420612 54.872678
          1.382963 0.682963 53.507620
          1.382095 0.682095 53.769971
          1.382172 0.682172 54.050590
          1.382172 0.682172 54.330575
          1.382095 0.682095 54.611194
          1.382963 0.682963 54.873545
        </DataArray>
      </Points>
      <PointData Scalars="density">
        <DataArray type="Float64" Name="density" format="ascii">
          500.000000
          500.000000
          500.000000
          500.000000
          500.000000
          500.000000
          500.000000
          500.000000
          500.000000
          500.000000
          500.000000
          500.000000
          500.000000
          500.000000
          500.000000
          500.000000
          500.000000
          500.000000
          500.000000
          500.000000
          500.000000
          500.000000
          500.000000
          500.000000
          500.000000
          500.000000
          500.000000
          500.000000
          500.000000
          500.000000
          500.000000
          500.000000
          500.000000
          500.000000
          500.000000
          500.000000
          500.000000
          500.000000
          500.000000
          500.000000
          500.000000
          500.000000
          500.000000
          500.000000
          500.000000
          500.000000
          500.000000
          500.000000
          500.000000
          500.000000
          500.000000
          500.000000
          500.000000
          500.000000
          500.000000
          500.000000
          500.000000
          500.000000
          500.000000
          500.000000
          500.000000
          500.000000
          500.000000
          500.000000
          500.000000
          500.000000
          500.000000
          500.000000
          500.000000
          500.000000
          500.000000
          500.000000
          500.000000
          500.000000
          500.000000
          500.000000
          500.000000
          500.000000
          500.000000
          500.000000
          500.000000
          500.000000
          500.000000
          500.000000
          500.000000
          500.000000
          500.000000
          500.000000
          500.000000
          500.000000
          500.000000
          500.000000
          500.000000
          500.000000
          500.000000
          500.000000
          500.000000
          500.000000
          500.000000
          500.000000
          500.000000
          500.000000
          500.000000
          500.000000
          500.000000
          500.000000
          500.000000
          500.000000
          500.000000
          500.000000
          500.000000
          500.000000
          500.000000
          500.000000
          500.000000
          500.000000
          500.000000
          500.000000
          500.000000
          500.000000
          500.000000
          500.000000
          500.000000
          500.000000
          500.000000
          500.000000
          500.000000
          500.000000
          500.000000
          500.000000
          500.000000
          500.000000
          500.000000
          500.000000
          500.000000
          500.000000
          500.000000
          500.000000
          500.000000
          500.000000
          500.000000
          500.000000
          500.000000
          500.000000
          500.000000
          500.000000
          500.000000
          500.000000
          500.000000
          500.000000
          500.000000
          500.000000
          500.000000
          500.000000
          500.000000
          500.000000
          500.000000
          500.000000
          500.000000
          500.000000
          500.000000
          500.000000
          500.000000
          500.000000
          500.000000
          500.000000
          500.000000
          500.000000
          500.000000
          500.000000
          500.000000
          500.000000
          500.000000
          500.000000
          500.000000
          500.000000
          500.000000
          500.000000
          500.000000
          500.000000
          500.000000
          500.000000
          500.000000
          500.000000
          500.000000
          500.000000
          500.000000
          500.000000
          500.000000
          500.000000
          500.000000
          500.000000
          500.000000
          500.000000
          500.000000
          500.000000
          500.000000
          500.000000
          500.000000
          500.000000
          500.000000
          500.000000
          500.000000
          500.000000
          500.000000
          500.000000
          500.000000
          500.000000
          500.000000
          500.000000
          500.000000
          500.000000
          500.000000
          500.000000
          500.000000
          500.000000
          500.000000
          500.000000
          500.000000
          500.000000
          500.000000
          500.000000
          500.000000
          500.000000
          500.000000
          500.000000
          500.000000
          500.000000
          500.000000
          500.000000
          500.000000
          500.000000
          500.000000
          500.000000
          500.000000
          500.000000
          500.000000
          500.000000
          500.000000
          500.000000
          500.000000
          500.000000
          500.000000
          500.000000
          500.000000
          500.000000
          500.000000
          500.000000
          500.000000
          500.000000
          500.000000
          500.000000
          500.000000
          500.000000
          500.000000
          500.000000
          500.000000
          500.000000
          500.000000
          500.000000
          500.000000
          500.000000
          500.000000
          500.000000
          500.000000
          500.000000
          500.000000
          500.000000
          500.000000
          500.000000
          500.000000
          500.000000
          500.000000
          500.000000
          500.000000
          500.000000
          500.000000
          500.000000
          500.000000
          500.000000
          500.000000
          500.000000
          500.000000
          500.000000
          500.000000
          500.000000
          500.000000
          500.000000
          500.000000
          500.000000
          500.000000
          500.000000
          500.000000
          500.000000
          500.000000
          500.000000
          500.000000
          500.000000
          500.000000
          500.000000
          500.000000
          500.000000
          500.000000
          500.000000
          500.000000
          500.000000
          500.000000
          500.000000
          500.000000
          500.000000
          500.000000
          500.000000
          500.000000
          500.000000
          500.000000
          500.000000
          500.000000
          500.000000
          500.000000
          500.000000
          500.000000
          500.000000
          500.000000
          500.000000
          500.000000
          500.000000
          500.000000
          500.000000
          500.000000
          500.000000
          500.000000
          500.000000
          500.000000
          500.000000
          500.000000
          500.000000
          500.000000
          500.000000
          500.000000
          500.000000
          500.000000
          500.000000
          500.000000
          500.000000
          500.000000
          500.000000
          500.000000
          500.000000
          500.000000
          500.000000
          500.000000
          500.000000
          500.000000
          500.000000
          500.000000
          500.000000
          500.000000
          500.000000
          500.000000
          500.000000
          500.000000
          500.000000
          500.000000
          500.000000
          500.000000
          500.000000
          500.000000
          500.000000
          500.000000
          500.000000
          500.000000
          500.000000
          500.000000
          500.000000
          500.000000
          500.000000
          500.000000
          500.000000
          500.000000
          500.000000
          500.000000
          500.000000
          500.000000
          500.000000
          500.000000
          500.000000
          500.000000
          500.000000
          500.000000
          500.000000
          500.000000
          500.000000
          500.000000
          500.000000
          500.000000
          500.000000
        </DataArray>
        <DataArray type="Float64" Name="pressure" format="ascii">
          -15000.000000
          -15000.000000
          -15000.000000
          -15000.000000
          -15000.000000
          -15000.000000
          -15000.000000
          -15000.000000
          -15000.000000
          -15000.000000
          -15000.000000
          -15000.000000
          -15000.000000
          -15000.000000
          -15000.000000
          -15000.000000
          -15000.000000
          -15000.000000
          -15000.000000
          -15000.000000
          -15000.000000
          -15000.000000
          -15000.000000
          -15000.000000
          -15000.000000
          -15000.000000
          -15000.000000
          -15000.000000
          -15000.000000
          -15000.000000
          -15000.000000
          -15000.000000
          -15000.000000
          -15000.000000
          -15000.000000
          -15000.000000
          -15000.000000
          -15000.000000
          -15000.000000
          -15000.000000
          -15000.000000
          -15000.000000
          -15000.000000
          -15000.000000
          -15000.000000
          -15000.000000
          -15000.000000
          -15000.000000
          -15000.000000
          -15000.000000
          -15000.000000
          -15000.000000
          -15000.000000
          -15000.000000
          -15000.000000
          -15000.000000
          -15000.000000
          -15000.000000
          -15000.000000
          -15000.000000
          -15000.000000
          -15000.000000
          -15000.000000
          -15000.000000
          -15000.000000
          -15000.000000
          -15000.000000
          -15000.000000
          -15000.000000
          -15000.000000
          -15000.000000
          -15000.000000
          -15000.000000
          -15000.000000
          -15000.000000
          -15000.000000
          -15000.000000
          -15000.000000
          -15000.000000
          -15000.000000
          -15000.000000
          -15000.000000
          -15000.000000
          -15000.000000
          -15000.000000
          -15000.000000
          -15000.000000
          -15000.000000
          -15000.000000
          -15000.000000
          -15000.000000
          -15000.000000
          -15000.000000
          -15000.000000
          -15000.000000
          -15000.000000
          -15000.000000
          -15000.000000
          -15000.000000
          -15000.000000
          -15000.000000
          -15000.000000
          -15000.000000
          -15000.000000
          -15000.000000
          -15000.000000
          -15000.000000
          -15000.000000
          -15000.000000
          -15000.000000
          -15000.000000
          -15000.000000
          -15000.000000
          -15000.000000
          -15000.000000
          -15000.000000
          -15000.000000
          -15000.000000
          -15000.000000
          -15000.000000
          -15000.000000
          -15000.000000
          -15000.000000
          -15000.000000
          -15000.000000
          -15000.000000
          -15000.000000
          -15000.000000
          -15000.000000
          -15000.000000
          -15000.000000
          -15000.000000
          -15000.000000
          -15000.000000
          -15000.000000
          -15000.000000
          -15000.000000
          -15000.000000
          -15000.000000
          -15000.000000
          -15000.000000
          -15000.000000
          -15000.000000
          -15000.000000
          -15000.000000
          -15000.000000
          -15000.000000
          -15000.000000
          -15000.000000
          -15000.000000
          -15000.000000
          -15000.000000
          -15000.000000
          -15000.000000
          -15000.000000
          -15000.000000
          -15000.000000
          -15000.000000
          -15000.000000
          -15000.000000
          -15000.000000
          -15000.000000
          -15000.000000
          -15000.000000
          -15000.000000
          -15000.000000
          -15000.000000
          -15000.000000
          -15000.000000
          -15000.000000
          -15000.000000
          -15000.000000
          -15000.000000
          -15000.000000
          -15000.000000
          -15000.000000
          -15000.000000
          -15000.000000
          -15000.000000
          -15000.000000
          -15000.000000
          -15000.000000
          -15000.000000
          -15000.000000
          -15000.000000
          -15000.000000
          -15000.000000
          -15000.000000
          -15000.000000
          -15000.000000
          -15000.000000
          -15000.000000
          -15000.000000
          -15000.000000
          -15000.000000
          -15000.000000
          -15000.000000
          -15000.000000
          -15000.000000
          -15000.000000
          -15000.000000
          -15000.000000
          -15000.000000
          -15000.000000
          -15000.000000
          -15000.000000
          -15000.000000
          -15000.000000
          -15000.000000
          -15000.000000
          -15000.000000
          -15000.000000
          -15000.000000
          -15000.000000
          -15000.000000
          -15000.000000
          -15000.000000
          -15000.000000
          -15000.000000
          -15000.000000
          -15000.000000
          -15000.000000
          -15000.000000
          -15000.000000
          -15000.000000
          -15000.000000
          -15000.000000
          -15000.000000
          -15000.000000
          -15000.000000
          -15000.000000
          -15000.000000
          -15000.000000
          -15000.000000
          -15000.000000
          -15000.000000
          -15000.000000
          -15000.000000
          -15000.000000