<?xml version="1.0"?>
<VTKFile type="PolyData" version="0.1" byte_order="LittleEndian">
  <PolyData>
    <Piece NumberOfPoints="396" NumberOfVerts="396" NumberOfLines="0" NumberOfStrips="0" NumberOfPolys="0">
      <Points>
        <DataArray type="Float64" NumberOfComponents="3" format="ascii">
          -0.054004 0.335039 5.130659
          -0.337187 0.012206 5.251989
          -0.441462 -0.157212 5.146588
          0.720876 2.144748 -0.465313
          -0.283938 -0.726938 1.861335
          0.499281 0.272974 4.944483
          0.922331 2.277269 -0.469783
          -0.772534 -2.168309 4.862045
          -0.482665 -0.279441 5.047796
          1.651138 -0.576566 1.867754
          -0.021534 -0.334717 1.852119
          -0.460524 -0.222139 4.783080
          0.261125 2.949165 5.458279
          -0.367363 -0.161915 5.022337
          0.368061 -0.631345 1.861088
          0.423639 2.952177 5.537903
          -0.698452 -0.076355 5.436070
          1.796773 -0.323341 1.863999
          -0.802844 -2.211697 4.841412
          -0.792028 0.342069 5.068794
          -0.813506 1.052520 -0.312019
          -0.809412 -2.269041 4.811987
          0.752839 0.377621 5.284005
          1.810656 -0.307012 1.864431
          0.026077 -0.681462 1.867754
          0.495308 2.980771 5.527202
          0.587146 0.507297 4.953122
          0.352217 -0.701087 1.853980
          -1.143299 2.299455 -0.216290
          -0.649317 0.326881 5.243946
          -0.083742 -0.666687 1.865664
          -0.731501 -0.050499 5.457705
          -0.518820 -0.288996 4.780890
          -0.182428 -0.710911 1.863478
          -1.049911 2.316762 -0.218684
          0.856487 -2.470501 5.414677
          1.588639 -0.735624 1.859807
          -0.909029 0.549162 5.166379
          -0.413351 -0.335948 4.914884
          -0.183395 0.325775 5.182317
          -0.293790 -2.498441 5.208764
          -0.602892 -2.337637 4.932141
          -1.867002 -0.341484 1.853996
          -0.486072 -0.311593 4.771624
          0.879382 -2.592572 5.554837
          1.676826 -0.695862 1.850450
          0.010459 0.295905 5.444338
          -0.310982 -2.306575 5.196013
          -0.775350 -2.174419 4.807667
          0.127972 0.163806 5.256493
          -1.194167 2.369154 -0.211897
          -1.641109 -0.234866 1.864912
          0.742096 0.416301 5.062389
          -0.320193 0.265011 5.275489
          -0.656817 -0.075868 5.340921
          0.023784 0.400224 5.184404
          -0.241316 -2.361725 5.134253
          -0.812744 1.060722 -0.302870
          -0.579356 0.434673 5.150266
          -0.117854 0.330191 5.396037
          -1.697024 -0.330779 1.869023
          0.636259 0.495167 5.392909
          0.597387 1.709452 5.601149
          1.847305 -0.519223 1.867754
          -0.470266 -0.189114 4.767748
          -0.735974 0.472439 5.193221
          1.824210 -0.313917 1.864082
          0.393354 0.503920 5.457990
          -0.397999 -0.360648 4.947198
          -0.265455 -2.392327 5.259075
          -0.911831 0.584560 5.188553
          0.414771 2.866550 5.453143
          4.659840 -2.327381 6.029280
          0.353641 0.140195 5.175364
          1.529388 -0.592604 1.866938
          1.863689 -0.357451 1.862388
          -1.684951 -0.307774 1.865640
          2.983983 0.484144 1.371295
          0.348372 0.158648 5.157301
          -0.553617 0.406815 5.079987
          0.355576 0.186492 5.197550
          -0.361178 0.335065 5.263676
          -1.134538 2.296814 -0.212425
          -0.875279 0.435091 5.199108
          0.263265 0.515925 5.499079
          -0.048847 -0.437638 1.870676
          0.797904 -2.197549 5.443454
          0.519376 1.599295 5.563645
          0.010614 0.346070 5.125968
          -1.157996 2.279743 -0.225788
          0.570065 1.688441 5.486659
          0.734812 2.288029 -0.488557
          0.737530 1.603333 5.583421
          0.724851 -2.202632 5.440835
          -0.439825 -0.135994 5.254726
          -0.314070 -2.445656 5.206183
          0.323067 0.143432 5.255762
          -0.524292 -2.322800 5.093009
          0.288495 0.222772 5.477349
          0.612918 0.479627 4.922004
          0.374194 -0.778365 1.855430
          -0.563734 -2.324996 5.101576
          2.401919 1.976149 6.002658
          0.240478 2.987333 5.493747
          1.734603 -0.376039 1.866087
          1.685928 -0.570961 1.867088
          -0.858124 1.055173 -0.344908
          2.917595 0.402960 1.370046
          -0.508039 -0.205811 4.776291
          -0.598394 -2.256077 5.025231
          -0.877691 1.077795 -0.335809
          -0.521706 -2.356481 4.979047
          -0.601956 0.182525 5.266260
          -1.088006 2.298881 -0.240931
          -1.894388 -0.407206 1.853810
          0.291525 -0.500538 1.863165
          -0.267788 -0.094693 5.191912
          -0.056567 -0.234400 1.853284
          -0.403229 -0.767394 1.860247
          -0.701709 -0.045958 5.394825
          -0.949191 0.390200 5.166513
          -0.591393 -0.002520 5.268763
          -0.191003 0.165601 5.272930
          -0.349446 -0.212803 5.193952
          -0.639735 -0.072823 5.403324
          0.200279 0.157570 5.289855
          -0.802821 -2.204223 4.818871
          -0.351765 -0.281761 5.172057
          0.232501 0.358912 5.157812
          -0.283635 -2.443021 5.236067
          -0.848297 0.488579 5.298882
          -0.256198 0.032759 5.184182
          -1.749435 -0.384142 1.854141
          -1.082680 2.336299 -0.215046
          -0.706623 -0.726937 1.858550
          -0.146458 -0.559438 1.852497
          -0.855336 1.051101 -0.336971
          -0.604276 0.084668 5.355517
          -0.376471 0.071990 5.346079
          -0.619969 0.219909 5.246593
          0.162516 -0.703234 1.854043
          -0.836172 1.056753 -0.321403
          -0.735073 -2.261530 4.950710
          -0.312755 -0.670468 1.854074
          4.649087 -2.404213 6.044822
          0.151651 -0.785842 1.853195
          -0.791256 -2.231725 4.875638
          0.265124 -0.803970 1.853157
          0.262266 0.519335 5.409658
          5.931636 -0.762301 1.343490
          0.714619 1.509407 5.534663
          1.605627 -0.628626 1.863399
          0.222962 0.445406 5.166016
          -0.718426 -2.201488 4.960105
          0.591796 0.220651 5.201546
          0.863460 2.453696 -0.493558
          -0.383992 -0.255632 5.164145
          -0.765641 -0.783741 1.858937
          0.359701 2.871895 5.544697
          0.662017 0.455712 5.283254
          -0.243103 -0.760888 1.853678
          -0.256974 -2.299160 5.112603
          -1.122539 2.308299 -0.210893
          0.359412 2.870027 5.632593
          0.836156 -2.589588 5.620336
          -0.481850 -0.385958 4.872078
          -0.293688 -0.644959 1.863279
          0.557538 1.454117 5.535084
          -0.961542 0.498338 5.161965
          1.641381 -0.720872 1.852627
          0.148608 0.507348 5.564098
          0.702123 1.650654 5.504597
          0.712654 -2.527600 5.494268
          -0.668505 -0.850062 1.863495
          2.323935 2.234547 5.904912
          -0.854783 1.045327 -0.366605
          0.701486 1.618013 5.438248
          -1.091968 2.318316 -0.230389
          0.978956 -2.381001 5.559960
          2.952333 0.396095 1.373188
          2.059344 -2.104130 7.240814
          0.413340 0.475506 5.049588
          -0.551375 0.338136 5.140543
          -0.694877 -0.787085 1.849759
          0.138533 0.146187 5.233313
          0.668071 1.696670 5.643167
          -0.000001 -2.805476 3.708404
          0.345616 -0.740037 1.852685
          -0.530160 0.012736 5.227301
          0.097163 -0.302040 1.860572
          0.915013 -2.492148 5.535682
          1.963334 0.303139 3.563698
          0.240817 3.007065 5.533951
          -0.538925 0.391801 5.121493
          0.174459 0.386898 5.525894
          0.624496 1.701489 5.626377
          -0.688945 -0.762107 1.861666
          0.591450 1.634670 5.437431
          0.944419 -2.321821 5.432233
          -0.638673 -0.742532 1.850559
          0.637290 0.363692 5.380282
          -0.061078 -0.764874 1.853600
          0.735203 2.327078 -0.470174
          -0.389567 -2.268631 5.000042
          0.000001 2.805476 3.708404
          -1.146404 2.282570 -0.214497
          0.537289 0.250643 4.978729
          -0.702564 -0.700858 1.854840
          0.574042 1.461496 5.556748
          0.643460 1.466745 5.539985
          0.877258 3.107551 5.884251
          0.702552 0.318569 5.356775
          -0.688323 -0.730413 1.853618
          -0.079114 -0.319878 1.861908
          0.094429 -0.256991 1.852869
          -0.373755 -2.466524 5.257422
          -3.437120 0.429393 5.623648
          0.009207 -0.641031 1.867754
          -0.292934 -2.351918 5.245399
          0.084589 -0.320623 1.865344
          0.193773 0.487062 5.199955
          -2.409367 -0.390722 1.902332
          0.374133 2.943369 5.575429
          -1.620920 -0.187154 1.865140
          -0.544278 0.405754 5.150298
          0.873906 -2.337428 5.351958
          -0.727931 0.059702 5.428152
          -0.819643 1.035231 -0.316892
          -0.588794 -0.790073 1.853918
          -0.020125 -0.247299 1.860575
          0.276853 3.066337 5.449223
          0.422587 0.223773 5.385597
          0.016738 -0.253681 1.852619
          -0.356741 -2.514212 5.152980
          0.781507 2.426563 -0.500000
          0.310575 0.439451 5.096277
          -0.464046 -2.419033 5.137760
          -0.767927 -0.021092 5.386141
          -0.557692 -0.816401 1.852663
          0.442628 3.023017 5.522961
          -0.933989 0.543386 5.114264
          -1.580065 -0.244261 1.864836
          -0.180401 0.123139 5.306128
          0.484774 3.014288 5.532793
          -0.311977 -2.361558 5.066582
          0.205498 -0.502093 1.853426
          -3.436656 0.373457 5.605617
          0.642266 2.239694 -0.467771
          0.394932 3.012514 5.416064
          0.858450 2.228528 -0.477299
          -0.699295 -2.163896 4.966519
          -2.415363 -0.358339 1.863485
          -0.519818 -0.229508 5.046465
          0.718766 -2.168931 5.410164
          0.958063 2.370284 -0.483608
          0.595467 0.292031 4.941818
          1.869983 -0.344042 1.856703
          0.895172 2.160177 -0.477228
          1.547289 -0.443870 1.866657
          -0.364745 -0.709236 1.854358
          0.113202 -0.236462 1.853645
          0.961743 2.348495 -0.479797
          0.241699 -0.562583 1.853035
          0.651948 0.471865 4.938104
          0.318189 0.475177 5.273682
          -0.313282 0.084713 5.284724
          -0.044928 0.350923 5.190751
          0.668788 0.327934 5.152081
          -0.401242 -0.324963 4.794953
          -0.907789 0.400410 5.244585
          0.901595 -2.546104 5.587022
          0.309527 0.534275 5.559664
          0.117548 0.351618 5.547193
          0.839942 -2.203432 5.488834
          0.061210 0.463043 5.612056
          -0.503332 0.390191 5.197522
          1.630685 -0.392282 1.865830
          0.940855 2.349788 -0.466777
          0.217577 -0.397333 1.853722
          -0.193035 -0.636567 1.865935
          0.859761 2.449562 -0.493004
          0.718140 0.326010 5.052422
          -0.724347 -0.022390 5.394627
          0.367471 0.257174 5.005143
          1.730192 -0.324014 1.865544
          0.590660 0.514739 4.962530
          0.045181 0.489942 5.519434
          0.275051 -0.704011 1.868362
          -3.515992 0.305622 5.577551
          0.661072 -2.271732 5.446755
          -2.005179 -0.466072 1.853232
          -1.665318 -0.210171 1.865288
          1.583307 -0.564314 1.869771
          -2.436630 -0.378403 1.882937
          0.418863 0.480608 5.470514
          0.703493 0.312112 4.994983
          0.293951 0.200334 5.367716
          -0.201517 0.308021 5.182373
          0.692687 2.162599 -0.492461
          0.239820 0.199154 5.259768
          -0.433308 -0.224496 4.793165
          -0.143056 -0.434303 1.853113
          -0.390979 -2.306024 5.031576
          -0.894203 0.515534 5.032770
          -0.266738 0.273273 5.298004
          0.944323 2.258666 -0.474965
          0.651620 0.404103 5.331319
          -0.857391 1.064195 -0.338765
          0.596914 1.509273 5.560030
          -0.288252 -2.305795 5.129903
          0.661766 0.368592 5.452848
          0.731658 -2.536124 5.529228
          0.336486 0.352856 5.039363
          0.948996 -2.459576 5.594162
          0.455414 0.482383 5.403803
          0.678555 0.324510 5.025810
          1.799593 -0.294020 1.863888
          0.753644 -2.283730 5.414592
          -3.512380 0.357610 5.602164
          0.594255 1.729475 5.562845
          -1.904773 -0.364964 1.854662
          -1.946612 -0.383089 1.854088
          1.716860 -0.490511 1.869566
          -2.395055 -0.338614 1.864709
          -1.956649 -0.432967 1.854050
          0.496678 0.403210 5.374075
          -0.212257 0.415333 5.332413
          0.463114 0.398883 5.458065
          0.760541 -2.218358 5.431038
          -0.261745 0.228480 5.286377
          1.516338 -0.610576 1.865839
          0.387882 2.956982 5.399635
          -0.779682 -2.222859 4.862504
          -1.945165 -0.456615 1.854160
          -0.435998 -0.187773 5.170717
          0.900440 -2.592350 5.515227
          0.851601 -2.456571 5.613839
          -0.764000 -2.234309 4.803512
          0.098384 0.536650 5.547805
          -0.713164 -0.782806 1.861606
          0.044071 0.163422 5.321233
          0.531568 0.535083 5.035714
          -0.855320 0.454268 5.069230
          -1.899149 -0.520526 1.854506
          0.660787 -2.210805 5.472071
          -0.565004 -0.322257 4.843881
          -0.645979 0.396362 5.230333
          0.600414 0.297372 5.245031
          1.572305 -0.637428 1.863420
          0.427022 0.350298 4.929112
          0.370177 2.838237 5.515101
          -1.627498 -0.229980 1.865170
          -0.641297 0.316162 5.122400
          0.640236 0.434041 4.918514
          -1.957678 -0.467636 1.856295
          0.137347 0.525263 5.545081
          -0.008284 0.241093 5.369061
          0.786369 -2.247642 5.380298
          0.468985 0.361194 4.899299
          0.591561 1.744613 5.485910
          0.003975 0.474792 5.300205
          0.182907 0.479732 5.587411
          -0.983383 0.494809 5.115597
          -1.065379 2.283621 -0.226831
          -0.005574 -0.245454 1.853208
          -0.958236 0.518111 5.218656
          -0.837152 1.095152 -0.324584
          0.775615 -2.404766 5.336895
          0.720267 0.423385 5.264957
          -1.612158 -0.264139 1.865144
          -0.393930 -0.691274 1.859146
          -0.631013 -0.021178 5.498235
          0.608829 1.467924 5.672980
          0.040314 0.405798 5.414727
          -0.156494 -0.481241 1.862517
          0.672031 1.488499 5.657490
          -0.473161 -0.202472 4.810143
          -1.985193 -0.452592 1.854540
          0.718783 -2.528168 5.509592
          0.689154 -2.494849 5.543192
          0.640504 2.260074 -0.437355
          0.905068 -2.405594 5.627042
          0.345778 0.404449 5.211680
          -1.733650 -0.234761 1.865258
          0.245515 -0.722974 1.851577
          0.392783 3.086633 5.434729
          -0.312514 0.049893 5.343843
          0.388871 -0.686319 1.858448
          0.912217 2.193455 -0.468464
          0.048604 0.299986 5.105607
          -0.561062 -0.213378 4.944139
          -0.639955 -0.002137 5.437711
          -0.275471 -0.176668 5.183908
          0.343006 -0.720652 1.864411
          0.714857 2.196143 -0.455742
          -0.441500 -2.507683 5.185390
        </DataArray>
      </Points>
      <PointData Scalars="density">
        <DataArray type="Float64" Name="density" format="ascii">
          890.877790
          1045.153303
          1057.823363
          815.417874
          944.588631
          987.871284
          1047.437828
          950.686115
          1041.540501
          1154.146484
          1076.346180
          1020.578148
          946.049956
          981.368942
          930.594837
          1109.614963
          965.633109
          915.680583
          955.112551
          895.062908
          907.730766
          888.461034
          879.473575
          893.258442
          912.545404
          930.360211
          941.533444
          994.249561
          980.386335
          1025.491052
          979.245924
          922.995401
          1005.169277
          990.150455
          934.058789
          1088.189323
          773.520634
          1015.338354
          1033.097890
          967.259665
          967.573517
          872.778683
          1079.783652
          963.889713
          941.822612
          813.674057
          961.639444
          1068.402811
          918.006850
          989.890618
          817.054941
          917.681367
          946.344010
          1038.012211
          1057.364268
          975.908269
          1034.324923
          893.182334
          971.564019
          924.575433
          1034.463474
          849.864651
          1002.157865
          774.014257
          908.035346
          1133.905837
          874.194673
          952.880978
          922.647428
          973.950882
          897.029681
          935.080526
          500.000000
          877.233790
          956.146792
          815.857423
          1010.220571
          500.000000
          939.396583
          846.497892
          1009.540231
          942.189386
          978.967386
          1122.297632
          1053.727299
          1066.294662
          977.887013
          996.858822
          896.939778
          948.962649
          1030.892766
          1064.850633
          1026.449976
          951.675418
          1048.257358
          1134.305303
          916.457137
          972.644161
          754.882553
          962.574697
          848.636574
          898.411256
          500.000000
          881.466944
          1079.811510
          1145.879189
          911.012054
          500.000000
          946.709522
          907.255270
          893.268311
          874.285852
          982.707685
          973.234270
          1074.273859
          806.213053
          871.311248
          854.813296
          858.513351
          1044.514726
          903.656225
          1098.028437
          1069.243344
          938.368078
          1045.755147
          984.744993
          920.987707
          797.248992
          1148.063009
          1027.221459
          857.203846
          875.472102
          1057.223592
          953.387392
          944.831717
          1015.669428
          913.861377
          1075.425504
          958.673776
          964.567867
          1032.468875
          911.556018
          1024.856761
          929.773416
          500.000000
          849.741112
          992.931680
          902.160191
          1066.103744
          500.000000
          964.894918
          1022.179756
          951.090973
          992.508069
          917.061357
          776.164277
          919.109361
          863.133345
          1036.242274
          1008.684075
          884.104750
          952.510558
          978.384875
          786.147849
          875.524873
          923.183252
          972.033513
          911.679002
          1006.904395
          799.477233
          984.687234
          1051.946484
          931.861050
          884.681025
          500.000000
          895.243158
          938.218976
          974.838279
          827.377998
          500.000000
          500.000000
          953.089779
          998.959771
          968.434193
          927.125360
          914.466849
          500.000000
          986.495375
          1051.144546
          995.880841
          1116.986364
          500.000000
          876.901852
          922.483971
          1097.743000
          1014.346751
          968.027052
          1019.949021
          934.330212
          1009.208613
          1004.088362
          787.019320
          1033.732951
          850.852387
          500.000000
          967.243400
          1012.563529
          900.563480
          924.201225
          1007.479889
          500.000000
          863.658106
          957.271058
          997.282195
          924.873103
          969.031970
          500.000000
          947.415951
          1049.005335
          1039.919512
          833.669329
          500.000000
          1087.127090
          763.926885
          959.159715
          942.806979
          911.755596
          906.165762
          989.649505
          965.753297
          839.266755
          844.980890
          993.168491
          961.000846
          846.543021
          921.541637
          1109.974419
          912.108415
          934.661113
          1024.366129
          966.237501
          788.618356
          956.662356
          925.249802
          1117.565736
          929.250684
          500.000000
          706.994084
          996.932776
          1113.587141
          915.842399
          500.000000
          967.149034
          839.959186
          884.743233
          1024.812265
          848.858780
          864.417589
          876.551302
          907.281331
          847.700364
          899.928367
          1017.534730
          956.396692
          981.368244
          1023.374000
          1049.691632
          1143.940171
          963.610604
          918.022617
          984.986748
          835.709280
          928.484148
          918.893019
          809.880913
          964.935224
          1036.112087
          931.792004
          776.403191
          1039.463659
          834.674615
          986.208060
          1018.494117
          897.577609
          966.574380
          947.102933
          915.223191
          1097.013978
          500.000000
          889.029367
          848.088370
          886.305108
          1110.743174
          500.000000
          940.453036
          978.725661
          933.556515
          973.034428
          773.179404
          1121.964030
          1002.807285
          919.647116
          1022.906584
          818.299608
          1044.958460
          966.631326
          1059.521237
          915.053334
          1110.587522
          1115.153985
          785.545846
          949.082432
          1014.833322
          951.983923
          998.234154
          1115.210273
          874.017132
          1120.425158
          500.000000
          974.231349
          1060.467173
          1001.947299
          1195.748137
          500.000000
          978.418776
          1119.487025
          760.477863
          967.179521
          1030.392664
          1081.924056
          888.719958
          1003.556105
          1017.942737
          965.223758
          1046.027939
          929.109210
          1080.007712
          938.905536
          901.278180
          945.440714
          895.497844
          907.944919
          992.781543
          856.608632
          801.340321
          951.831068
          1057.710036
          1120.878679
          973.820670
          959.527282
          905.908721
          879.320764
          998.003116
          1032.858084
          909.138448
          977.428982
          1042.956895
          1016.396189
          952.008164
          851.761427
          898.572638
          979.090501
          895.183269
          941.754256
          969.642423
          941.139580
          901.713418
          933.687191
          943.160344
          868.756659
          896.207947
          870.364362
          792.252247
          1092.499390
          917.990967
          882.330739
          1042.946396
          901.124859
          940.544967
          908.677925
          747.016014
          939.311674
          1135.206593
          975.580896
          1089.918304
          894.829811
          895.437300
          911.340708
          879.977844
          860.919543
          954.813854
          1059.275501
          836.462292
          1012.653573
          897.338535
          871.545312
        </DataArray>
        <DataArray type="Float64" Name="pressure" format="ascii">
          -3273.666308
          1354.599095
          1734.700891
          -5537.463775
          -1662.341077
          -363.861469
          1423.134839
          -1479.416546
          1246.215040
          4624.394507
          2290.385400
          617.344446
          -1618.501332
          -558.931737
          -2082.154887
          3288.448892
          -1031.006733
          -2529.582509
          -1346.623459
          -3148.112758
          -2768.077017
          -3346.168969
          -3615.792760
          -3202.246734
          -2623.637877
          -2089.193664
          -1753.996677
          -172.513176
          -588.409941
          764.731567
          -622.622289
          -2310.137982
          155.078313
          -295.486363
          -1978.236326
          2645.679692
          -6794.380967
          460.150633
          992.936686
          -982.210041
          -972.794492
          -3816.639497
          2393.509545
          -1083.308607
          -1745.321634
          -5589.778294
          -1150.816682
          2052.084328
          -2459.794512
          -303.281445
          -5488.351761
          -2469.558978
          -1609.679693
          1140.366322
          1720.928025
          -722.751938
          1029.747700
          -3204.529982
          -853.079434
          -2262.737009
          1033.904215
          -4504.060456
          64.735942
          -6779.572290
          -2758.939626
          4017.175101
          -3774.159821
          -1413.570654
          -2320.577174
          -781.473544
          -3089.109566
          -1947.584210
          -15000.000000
          -3682.986301
          -1315.596235
          -5524.277323
          306.617143
          -15000.000000
          -1818.102506
          -4605.063248
          286.206931
          -1734.318433
          -630.978429
          3668.928955
          1611.818977
          1988.839849
          -663.389606
          -94.235330
          -3091.806673
          -1531.120540
          926.782981
          1945.518977
          793.499290
          -1449.737463
          1447.720749
          4029.159096
          -2506.285890
          -820.675178
          -7353.523404
          -1122.759098
          -4540.902789
          -3047.662315
          -15000.000000
          -3555.991686
          2394.345305
          4376.375674
          -2669.638380
          -15000.000000
          -1598.714336
          -2782.341890
          -3201.950660
          -3771.424441
          -518.769457
          -802.971895
          2228.215757
          -5813.608416
          -3860.662547
          -4355.601123
          -4244.599471
          1335.441771
          -2890.313250
          2940.853096
          2077.300333
          -1848.957659
          1372.654403
          -457.650212
          -2370.368788
          -6082.530240
          4441.890261
          816.643761
          -4283.884614
          -3735.836948
          1716.707749
          -1398.378252
          -1655.048477
          470.082827
          -2584.158687
          2262.765132
          -1239.786722
          -1062.963990
          974.066247
          -2653.319462
          745.702822
          -2106.797514
          -15000.000000
          -4507.766638
          -212.049591
          -2935.194276
          1983.112324
          -15000.000000
          -1053.152455
          665.392675
          -1467.270810
          -224.757921
          -2488.159289
          -6715.071694
          -2426.719155
          -4105.999662
          1087.268215
          260.522236
          -3476.857489
          -1424.683250
          -648.453752
          -6415.564544
          -3734.253820
          -2304.502445
          -838.994619
          -2649.629940
          207.131861
          -6015.683007
          -459.382969
          1558.394522
          -2044.168492
          -3459.569258
          -15000.000000
          -3142.705275
          -1853.430733
          -754.851642
          -5178.660045
          -15000.000000
          -15000.000000
          -1407.306622
          -31.206857
          -946.974219
          -2186.239193
          -2565.994523
          -15000.000000
          -405.138749
          1534.336375
          -123.574762
          3509.590933
          -15000.000000
          -3692.944448
          -2325.480860
          2932.290008
          430.402525
          -959.188428
          598.470645
          -1970.093630
          276.258399
          122.650856
          -6389.420387
          1011.988537
          -4474.428387
          -15000.000000
          -982.697987
          376.905862
          -2983.095594
          -2273.963235
          224.396671
          -15000.000000
          -4090.256830
          -1281.868251
          -81.534144
          -2253.806903
          -929.040904
          -15000.000000
          -1577.521479
          1470.160051
          1197.585359
          -4989.920134
          -15000.000000
          2613.812702
          -7082.193463
          -1225.208563
          -1715.790632
          -2647.332135
          -2815.027126
          -310.514837
          -1027.401100
          -4821.997344
          -4650.573294
          -204.945277
          -1169.974630
          -4603.709372
          -2353.750880
          3299.232557
          -2636.747535
          -1960.166607
          730.983868
          -1012.874968
          -6341.449325
          -1300.129324
          -2242.505953
          3526.972068
          -2122.479468
          -15000.000000
          -8790.177491
          -92.016714
          3407.614242
          -2524.728025
          -15000.000000
          -985.528993
          -4801.224422
          -3457.703001
          744.367942
          -4534.236586
          -4067.472331
          -3703.460934
          -2781.560084
          -4568.989079
          -3002.148994
          526.041907
          -1308.099241
          -558.952692