<?xml version="1.0"?>
<VTKFile type="PolyData" version="0.1" byte_order="LittleEndian">
  <PolyData>
    <Piece NumberOfPoints="396" NumberOfVerts="396" NumberOfLines="0" NumberOfStrips="0" NumberOfPolys="0">
      <Points>
        <DataArray type="Float64" NumberOfComponents="3" format="ascii">
          0.900792 0.326957 43.036287
          -0.211390 -0.146181 42.965298
          0.640586 0.311168 42.975315
          0.627822 -0.151760 42.344350
          -0.105995 0.083344 42.577676
          0.742872 0.389095 42.606602
          -0.054177 0.211928 42.697038
          -0.944738 0.321657 43.039932
          -0.149333 -0.567244 43.214507
          0.352003 -0.264799 42.617408
          -0.589929 -0.114427 42.831646
          -0.033195 0.166216 42.591300
          0.644572 0.233007 42.998190
          0.305443 0.153461 42.808926
          -0.100867 0.369155 43.189814
          -0.193145 0.307641 42.507993
          -0.122795 0.258057 43.088899
          0.629761 0.225717 42.575160
          0.644573 -0.233007 42.998190
          0.305441 -0.153458 42.808923
          -0.100867 -0.369155 43.189814
          -0.193144 -0.307642 42.507991
          -0.122795 -0.258057 43.088899
          0.629761 -0.225717 42.575160
          -0.054176 -0.211928 42.697040
          -0.944737 -0.321657 43.039933
          -0.149332 0.567247 43.214506
          0.352001 0.264797 42.617405
          -0.589929 0.114427 42.831646
          -0.033196 -0.166216 42.591300
          0.900791 -0.326957 43.036287
          -0.211390 0.146182 42.965298
          0.640586 -0.311169 42.975316
          0.627823 0.151760 42.344350
          -0.105995 -0.083345 42.577675
          0.742872 -0.389096 42.606607
          0.784597 -0.220018 43.191144
          -0.727646 -0.403855 42.603752
          -0.664221 -0.085354 42.401641
          -0.749089 -0.118428 43.219428
          -0.903206 -0.343935 42.953290
          0.477442 0.206784 42.717021
          -0.906161 -0.174145 42.804550
          -0.706066 0.206109 43.169091
          0.656143 -0.210538 43.203727
          0.977428 0.134588 43.039262
          -0.014461 0.289858 42.592178
          -0.845027 -0.288513 42.742535
          -1.001857 -0.209924 42.999455
          0.660526 0.039064 43.102746
          -0.780614 0.150113 42.696974
          -0.739617 0.141979 42.429650
          0.587888 0.206705 42.550502
          -0.574120 -0.314107 42.933068
          -1.001859 0.209924 42.999454
          0.660526 -0.039063 43.102745
          -0.780613 -0.150112 42.696973
          -0.739616 -0.141977 42.429649
          0.587888 -0.206705 42.550501
          -0.574119 0.314108 42.933067
          -0.906161 0.174146 42.804550
          -0.706066 -0.206109 43.169092
          0.656148 0.210538 43.203738
          0.977426 -0.134588 43.039260
          -0.014462 -0.289857 42.592179
          -0.845024 0.288513 42.742534
          0.784596 0.220017 43.191144
          -0.727639 0.403854 42.603746
          -0.664221 0.085351 42.401640
          -0.749090 0.118428 43.219429
          -0.903207 0.343936 42.953290
          0.477442 -0.206783 42.717020
          3.257639 3.320060 48.733263
          -0.776929 -0.148211 43.194428
          0.699126 -0.209119 42.422686
          0.865005 0.252950 42.782296
          -0.729920 0.095593 42.335556
          3.244341 3.301948 36.890043
          -0.723921 0.144500 42.387659
          -0.822061 -0.052886 42.723595
          0.294191 0.305175 42.745327
          -0.206062 0.186189 42.887003
          -0.709024 0.328060 43.057313
          -0.852874 0.314130 42.884888
          0.761841 -0.356908 42.686607
          0.419317 -0.274792 42.798281
          -0.027165 -0.002006 43.187726
          0.103512 0.367476 42.934899
          0.479437 -0.089265 42.674557
          0.545319 -0.004308 42.379754
          0.761841 0.356907 42.686607
          0.419316 0.274793 42.798282
          -0.027164 0.002006 43.187726
          0.103513 -0.367476 42.934899
          0.479434 0.089265 42.674558
          0.545320 0.004308 42.379754
          -0.723921 -0.144500 42.387660
          -0.822061 0.052888 42.723596
          0.294190 -0.305174 42.745328
          -0.206061 -0.186190 42.887002
          -0.709023 -0.328059 43.057313
          -0.852872 -0.314131 42.884886
          3.256745 -3.319030 48.732285
          -0.776931 0.148212 43.194428
          0.699125 0.209117 42.422685
          0.865006 -0.252951 42.782294
          -0.729920 -0.095594 42.335557
          3.244376 -3.302004 36.890026
          -0.086235 -0.651577 42.409191
          -0.868995 0.228119 42.774044
          -0.815364 -0.232598 43.229009
          -0.652948 -0.108643 42.373574
          -0.649185 -0.185096 43.167178
          0.100601 -0.306179 42.998708
          -0.829506 0.037074 42.992190
          -0.992499 0.045297 43.021732
          -0.302164 -0.297576 42.719616
          -0.450622 -0.221053 42.584821
          -0.506821 -0.002272 42.785498
          -0.834398 -0.361892 42.780013
          -0.642366 0.333224 42.983380
          -0.272045 -0.130729 42.647848
          -0.794473 0.409279 42.908715
          -0.583407 0.294663 42.778375
          -1.022819 0.225015 42.988049
          -0.925548 0.298242 43.130925
          -0.642367 -0.333225 42.983381
          -0.272044 0.130728 42.647847
          -0.794472 -0.409279 42.908715
          -0.583408 -0.294663 42.778374
          -1.022818 -0.225016 42.988050
          -0.925546 -0.298243 43.130925
          -0.829501 -0.037073 42.992187
          -0.992498 -0.045295 43.021731
          -0.302165 0.297576 42.719617
          -0.450622 0.221054 42.584820
          -0.506821 0.002272 42.785499
          -0.834398 0.361891 42.780014
          -0.086235 0.651578 42.409191
          -0.868997 -0.228119 42.774045
          -0.815368 0.232598 43.229008
          -0.652948 0.108644 42.373575
          -0.649185 0.185099 43.167179
          0.100601 0.306178 42.998707
          3.254441 3.322305 48.737709
          0.153328 0.415604 43.207982
          0.061242 -0.523595 42.448592
          0.090898 -0.515848 43.304982
          0.186859 0.287018 42.550494
          3.267803 3.339301 36.878545
          0.257511 0.229476 42.570824
          0.601554 -0.420970 42.783233
          0.197388 0.061685 42.488623
          0.124021 -0.036788 42.959456
          0.616024 0.079578 42.807389
          0.274802 0.234239 42.540563
          -0.002929 -0.515516 42.270345
          0.160993 0.028999 43.090987
          0.131778 0.544293 43.193923
          0.015254 0.618151 42.450671
          0.310422 0.171888 42.886776
          -0.086840 -0.463523 43.162443
          -0.002928 0.515516 42.270345
          0.160985 -0.028999 43.090973
          0.131778 -0.544292 43.193923
          0.015253 -0.618151 42.450670
          0.310418 -0.171889 42.886771
          -0.086841 0.463522 43.162442
          0.257511 -0.229476 42.570823
          0.601553 0.420971 42.783233
          0.197389 -0.061685 42.488623
          0.124021 0.036789 42.959457
          0.616024 -0.079578 42.807389
          0.274805 -0.234236 42.540562
          3.255336 -3.323335 48.738686
          0.153328 -0.415606 43.207981
          0.061243 0.523596 42.448592
          0.090898 0.515849 43.304982
          0.186861 -0.287017 42.550495
          3.267768 -3.339246 36.878562
          -0.000000 3.653156 47.807475
          -0.000000 -0.445462 42.642934
          -0.000000 -0.611051 43.275618
          -0.000000 -0.566921 42.264110
          0.000000 -0.288587 42.217152
          0.000000 3.653155 37.812310
          -0.000000 -0.409447 41.499960
          -0.000000 -0.525875 42.481798
          -0.000000 -0.673951 42.349923
          -0.000000 -0.249815 43.209061
          -0.000001 -0.294690 42.911813
          0.000000 0.027864 44.134796
          -0.000000 0.621110 42.380489
          0.000000 -0.579158 42.421022
          -0.000000 0.306718 43.161380
          0.000000 0.323224 42.543774
          0.000000 -0.511432 43.231201
          -0.000000 0.628254 43.223588
          0.000000 -0.621110 42.380488
          -0.000000 0.579158 42.421023
          0.000000 -0.306718 43.161381
          0.000000 -0.323223 42.543773
          -0.000000 0.511432 43.231201
          0.000000 -0.628254 43.223588
          0.000000 0.409447 41.499960
          0.000000 0.525876 42.481799
          0.000000 0.673950 42.349922
          0.000001 0.249814 43.209061
          0.000000 0.294690 42.911813
          0.000000 -0.027864 44.134796
          -0.000000 -3.653156 47.807475
          0.000000 0.445463 42.642934
          -0.000000 0.611051 43.275618
          0.000000 0.566920 42.264110
          0.000000 0.288580 42.217144
          -0.000000 -3.653155 37.812310
          -3.265852 3.338479 48.754246
          -0.153328 0.415605 43.207982
          -0.061242 -0.523595 42.448592
          -0.090898 -0.515849 43.304983
          -0.186859 0.287018 42.550494
          -3.267802 3.339299 36.878546
          -0.257511 0.229476 42.570824
          -0.601553 -0.420970 42.783232
          -0.197388 0.061685 42.488623
          -0.124021 -0.036788 42.959456
          -0.616024 0.079578 42.807389
          -0.274803 0.234238 42.540563
          0.002928 -0.515515 42.270345
          -0.160990 0.028999 43.090979
          -0.131778 0.544292 43.193923
          -0.015254 0.618151 42.450671
          -0.310421 0.171888 42.886775
          0.086840 -0.463522 43.162442
          0.002928 0.515517 42.270345
          -0.160988 -0.028999 43.090981
          -0.131778 -0.544292 43.193923
          -0.015254 -0.618152 42.450671
          -0.310419 -0.171889 42.886773
          0.086840 0.463522 43.162443
          -0.257511 -0.229476 42.570823
          -0.601553 0.420971 42.783233
          -0.197389 -0.061685 42.488623
          -0.124021 0.036788 42.959456
          -0.616024 -0.079579 42.807389
          -0.274805 -0.234236 42.540561
          -3.265805 -3.336021 48.750973
          -0.153328 -0.415606 43.207982
          -0.061243 0.523596 42.448592
          -0.090899 0.515848 43.304982
          -0.186861 -0.287017 42.550495
          -3.267792 -3.339284 36.878550
          0.086235 -0.651577 42.409191
          0.868996 0.228119 42.774044
          0.815365 -0.232598 43.229009
          0.652948 -0.108643 42.373574
          0.649186 -0.185097 43.167179
          -0.100601 -0.306179 42.998708
          0.829505 0.037074 42.992189
          0.992499 0.045297 43.021731
          0.302164 -0.297576 42.719616
          0.450622 -0.221053 42.584821
          0.506821 -0.002272 42.785498
          0.834398 -0.361892 42.780014
          0.642366 0.333224 42.983380
          0.272045 -0.130728 42.647848
          0.794473 0.409279 42.908715
          0.583407 0.294663 42.778375
          1.022819 0.225016 42.988049
          0.925547 0.298242 43.130924
          0.642367 -0.333225 42.983381
          0.272044 0.130728 42.647846
          0.794473 -0.409279 42.908715
          0.583408 -0.294663 42.778374
          1.022818 -0.225015 42.988049
          0.925546 -0.298242 43.130925
          0.829502 -0.037073 42.992188
          0.992499 -0.045295 43.021731
          0.302165 0.297576 42.719617
          0.450622 0.221054 42.584820
          0.506821 0.002272 42.785498
          0.834398 0.361892 42.780014
          0.086235 0.651578 42.409191
          0.868996 -0.228119 42.774045
          0.815368 0.232598 43.229008
          0.652948 0.108644 42.373575
          0.649185 0.185098 43.167178
          -0.100601 0.306179 42.998708
          -3.246229 3.303886 48.716726
          0.776930 -0.148212 43.194428
          -0.699126 -0.209119 42.422686
          -0.865005 0.252950 42.782296
          0.729920 0.095593 42.335556
          -3.244342 3.301950 36.890043
          0.723921 0.144500 42.387659
          0.822061 -0.052886 42.723595
          -0.294191 0.305175 42.745326
          0.206062 0.186190 42.887001
          0.709023 0.328059 43.057313
          0.852874 0.314130 42.884888
          -0.761842 -0.356908 42.686608
          -0.419317 -0.274792 42.798282
          0.027165 -0.002006 43.187726
          -0.103512 0.367476 42.934899
          -0.479436 -0.089264 42.674557
          -0.545319 -0.004308 42.379754
          -0.761840 0.356907 42.686606
          -0.419317 0.274793 42.798282
          0.027165 0.002006 43.187726
          -0.103513 -0.367476 42.934899
          -0.479434 0.089265 42.674558
          -0.545320 0.004308 42.379754
          0.723921 -0.144500 42.387660
          0.822061 0.052887 42.723596
          -0.294191 -0.305174 42.745328
          0.206062 -0.186189 42.887002
          0.709023 -0.328060 43.057313
          0.852872 -0.314131 42.884886
          -3.246275 -3.306344 48.719998
          0.776930 0.148212 43.194428
          -0.699125 0.209116 42.422685
          -0.865006 -0.252951 42.782293
          0.729920 -0.095594 42.335557
          -3.244352 -3.301966 36.890038
          -0.784596 -0.220018 43.191144
          0.727645 -0.403855 42.603751
          0.664221 -0.085353 42.401641
          0.749090 -0.118428 43.219429
          0.903206 -0.343935 42.953290
          -0.477442 0.206784 42.717021
          0.906161 -0.174145 42.804550
          0.706066 0.206109 43.169091
          -0.656146 -0.210540 43.203732
          -0.977428 0.134588 43.039262
          0.014462 0.289857 42.592178
          0.845027 -0.288513 42.742535
          1.001858 -0.209924 42.999455
          -0.660526 0.039063 43.102746
          0.780614 0.150113 42.696974
          0.739617 0.141979 42.429650
          -0.587888 0.206705 42.550502
          0.574120 -0.314107 42.933068
          1.001858 0.209924 42.999454
          -0.660526 -0.039063 43.102745
          0.780613 -0.150112 42.696973
          0.739616 -0.141977 42.429649
          -0.587888 -0.206705 42.550501
          0.574119 0.314107 42.933067
          0.906161 0.174146 42.804550
          0.706066 -0.206109 43.169092
          -0.656145 0.210536 43.203733
          -0.977426 -0.134588 43.039260
          0.014461 -0.289857 42.592179
          0.845024 0.288513 42.742534
          -0.784597 0.220017 43.191144
          0.727639 0.403854 42.603746
          0.664221 0.085351 42.401640
          0.749089 0.118428 43.219428
          0.903207 0.343936 42.953289
          -0.477442 -0.206783 42.717020
          -0.900793 0.326957 43.036287
          0.211390 -0.146180 42.965298
          -0.640586 0.311168 42.975316
          -0.627822 -0.151760 42.344350
          0.105996 0.083343 42.577676
          -0.742872 0.389095 42.606601
          0.054176 0.211929 42.697040
          0.944738 0.321657 43.039932
          0.149332 -0.567247 43.214505
          -0.352002 -0.264799 42.617407
          0.589929 -0.114427 42.831646
          0.033196 0.166216 42.591300
          -0.644572 0.233007 42.998190
          -0.305443 0.153460 42.808926
          0.100867 0.369154 43.189814
          0.193147 0.307640 42.507994
          0.122795 0.258057 43.088900
          -0.629761 0.225717 42.575160
          -0.644573 -0.233007 42.998190
          -0.305441 -0.153459 42.808923
          0.100867 -0.369155 43.189813
          0.193142 -0.307643 42.507991
          0.122796 -0.258058 43.088900
          -0.629761 -0.225717 42.575160
          0.054177 -0.211928 42.697039
          0.944737 -0.321657 43.039933
          0.149333 0.567242 43.214508
          -0.352002 0.264797 42.617406
          0.589928 0.114427 42.831646
          0.033195 -0.166215 42.591300
          -0.900791 -0.326957 43.036287
          0.211390 0.146182 42.965297
          -0.640586 -0.311169 42.975315
          -0.627823 0.151760 42.344350
          0.105994 -0.083345 42.577675
          -0.742872 -0.389096 42.606607
        </DataArray>
      </Points>
      <PointData Scalars="density">
        <DataArray type="Float64" Name="density" format="ascii">
          968.844561
          822.642746
          989.153304
          872.059621
          1003.356448
          674.474561
          1087.910787
          917.608484
          788.744193
          984.428086
          1052.089320
          1115.167333
          1079.432772
          1044.344342
          953.865039
          859.634364
          942.273803
          1023.163525
          1079.435185
          1044.346771
          953.865458
          859.632137
          942.274061
          1023.162378
          1087.911099
          917.607985
          788.738320
          984.430317
          1052.090980
          1115.168438
          968.845356
          822.643137
          989.154901
          872.059454
          1003.358118
          674.476904
          941.529927
          643.094153
          1096.167406
          916.555764
          1012.049224
          1110.367102
          950.316298
          1024.345495
          842.415978
          936.653177
          1118.781663
          1032.946006
          920.962017
          1005.707025
          998.951714
          905.225789
          998.950185
          853.693885
          920.962016
          1005.708938
          998.953649
          905.228022
          998.949521
          853.693528
          950.319116
          1024.346130
          842.397235
          936.656130
          1118.782353
          1032.947136
          941.531952
          643.080923
          1096.171068
          916.553568
          1012.046922
          1110.366299
          500.000000
          1016.520094
          883.906102
          1037.967610
          912.609724
          500.000000
          898.983725
          822.211682
          929.195317
          893.509682
          1025.106882
          1168.094739
          923.604089
          975.222732
          827.025666
          710.056961
          1064.161680
          956.060149
          923.602008
          975.223675
          827.026119
          710.056791
          1064.161408
          956.061366
          898.985316
          822.214899
          929.195866
          893.511333
          1025.109114
          1168.096342
          500.000000
          1016.520856
          883.912515
          1037.965405
          912.608847
          500.000000
          875.700402
          1005.301614
          851.933602
          1017.258311
          939.630554
          897.518023
          1073.053116
          767.255529
          985.040112
          958.138702
          988.401828
          983.445243
          911.840291
          1100.529943
          914.386968
          1028.819678
          798.966010
          865.433081
          911.841581
          1100.527436
          914.388722
          1028.820223
          798.963434
          865.431982
          1073.053964
          767.254428
          985.040961
          958.137783
          988.401666
          983.443213
          875.699855
          1005.301577
          851.932446
          1017.257467
          939.626681
          897.517611
          500.000000
          827.103324
          1053.500245
          867.366791
          998.348388
          500.000000
          1069.882081
          710.793105
          758.588855
          896.936292
          1034.061474
          932.299014
          784.259298
          820.955356
          830.515342
          1007.056767
          875.841041
          1090.036058
          784.256937
          820.987000
          830.515836
          1007.056680
          875.848122
          1090.035016
          1069.881380
          710.792216
          758.588473
          896.937159
          1034.059543
          932.294653
          500.000000
          827.102066
          1053.497968
          867.367184
          998.348727
          500.000000
          500.000000
          800.443733
          827.928072
          787.600926
          500.000000
          500.000000
          500.000000
          1050.043591
          874.881179
          842.005939
          844.831650
          500.000000
          1040.332807
          1070.530969
          1096.437341
          1069.159486
          1100.032710
          821.531817
          1040.333027
          1070.530895
          1096.435297
          1069.160347
          1100.032854
          821.532237
          500.000000
          1050.041263
          874.883387
          842.005381
          844.830134
          500.000000
          500.000000
          800.443964
          827.927857
          787.598971
          500.000000
          500.000000
          500.000000
          827.102233
          1053.500805
          867.367002
          998.347900
          500.000000
          1069.881692
          710.793746
          758.588413
          896.936783
          1034.061046
          932.298074
          784.259608
          820.970817
          830.516060
          1007.056921
          875.844046
          1090.035693
          784.257114
          820.972201
          830.515350
          1007.056205
          875.845719
          1090.036318
          1069.882179
          710.791683
          758.588600
          896.937150
          1034.059890
          932.294837
          500.000000
          827.102089
          1053.497930
          867.366642
          998.348951
          500.000000
          875.699841
          1005.301489
          851.932316
          1017.258368
          939.629033
          897.517635
          1073.053010
          767.255296
          985.039455
          958.138264
          988.401806
          983.445195
          911.840162
          1100.529425
          914.387087
          1028.819799
          798.965253
          865.432883
          911.841591
          1100.527510
          914.388814
          1028.819950
          798.964137
          865.432238
          1073.054066
          767.254590
          985.041495
          958.137862
          988.401812
          983.443593
          875.699461
          1005.301712
          851.933659
          1017.257401
          939.628607
          897.517437
          500.000000
          1016.519819
          883.905121
          1037.967704
          912.610008
          500.000000
          898.983884
          822.212119
          929.194686
          893.511202
          1025.107054
          1168.094931
          923.604552
          975.223331
          827.026468
          710.056703
          1064.161315
          956.059850
          923.601499
          975.223739
          827.025588
          710.056861
          1064.161699
          956.061386
          898.985123
          822.214812
          929.195951
          893.510316
          1025.108792
          1168.096368
          500.000000
          1016.521231
          883.914752
          1037.964947
          912.608694
          500.000000
          941.531899
          643.092540
          1096.168098
          916.553746
          1012.049193
          1110.367261
          950.316744
          1024.345591
          842.408811
          936.654830
          1118.782104
          1032.946231
          920.959943
          1005.706665
          998.952568
          905.226041
          998.950575
          853.693715
          920.964967
          1005.709100
          998.953422
          905.227891
          998.949078
          853.693675
          950.319078
          1024.345652
          842.404287
          936.656889
          1118.782103
          1032.946452
          941.530226
          643.082220
          1096.170052
          916.555629
          1012.047090
          1110.366516
          968.844828
          822.642063
          989.153722
          872.059179
          1003.356561
          674.474383
          1087.909426
          917.608210
          788.740127
          984.427907
          1052.089467
          1115.167682
          1079.432960
          1044.343907
          953.865644
          859.634570
          942.274514
          1023.163385
          1079.435050
          1044.347553
          953.865277
          859.631816
          942.272248
          1023.162264
          1087.911766
          917.608527
          788.747653
          984.430327
          1052.091081
          1115.168220
          968.845280
          822.643562
          989.154569
          872.059517
          1003.358350
          674.477222
        </DataArray>
        <DataArray type="Float64" Name="pressure" format="ascii">
          -934.663162
          -5320.717610
          -325.400877
          -3838.211376
          100.693451
          -9765.763156
          2637.323611
          -2471.745484
          -6337.674200
          -467.157434
          1562.679609
          3455.019992
          2382.983152
          1330.330267
          -1384.048819
          -4210.969076
          -1731.785910
          694.905744
          2383.055545
          1330.403115
          -1384.036259
          -4211.035878
          -1731.778177
          694.871341
          2637.332975
          -2471.760464
          -6337.850414
          -467.090483
          1562.729404
          3455.053130
          -934.639316
          -5320.705886
          -325.352967
          -3838.216371
          100.743540
          -9765.692874
          -1754.102184
          -10707.175411
          2885.022172
          -2503.327077
          361.476710
          3311.013064
          -1490.511047
          730.364857
          -4727.520647
          -1900.404676
          3563.449900
          988.380177
          -2371.139487
          171.210746
          -31.448570
          -2843.226325
          -31.494462
          -4389.183456
          -2371.139522
          171.268131
          -31.390543
          -2843.159342
          -31.514357
          -4389.194147
          -1490.426507
          730.383904
          -4728.082962
          -1900.316109
          3563.470601
          988.414095
          -1754.041454
          -10707.572317
          2885.132040
          -2503.392956
          361.407667
          3310.988984
          -15000.000000
          495.602820
          -3482.816937
          1139.028290
          -2621.708282
          -15000.000000
          -3030.488265
          -5333.649555
          -2124.140499
          -3194.709527
          753.206445
          5042.842183
          -2291.877329
          -743.318043
          -5189.230020
          -8698.291181
          1924.850391
          -1318.195544
          -2291.939757
          -743.289752
          -5189.216431
          -8698.296271
          1924.842237
          -1318.159011
          -3030.440529
          -5333.553040
          -2124.124014
          -3194.660006
          753.273420
          5042.890271
          -15000.000000
          495.625680
          -3482.624544
          1138.962143
          -2621.734585
          -15000.000000
          -3728.987931
          159.048421
          -4441.991929
          517.749337
          -1811.083365
          -3074.459316
          2191.593475
          -6982.334126
          -448.796638
          -1255.838937
          -347.945152
          -496.642695
          -2644.791263
          3015.898292
          -2568.390963
          864.590350
          -6031.019708
          -4037.007567
          -2644.752576
          3015.823088
          -2568.338353
          864.606694
          -6031.096993
          -4037.040531
          2191.618929
          -6982.367146
          -448.771160
          -1255.866519
          -347.950030
          -496.703599
          -3729.004363
          159.047311
          -4442.026618
          517.724017
          -1811.199557
          -3074.471662
          -15000.000000
          -5186.900278
          1605.007338
          -3978.996276
          -49.548359
          -15000.000000
          2096.462416
          -8676.206842
          -7242.334351
          -3091.911228
          1021.844221
          -2031.029583
          -6472.221066
          -5371.339311
          -5084.539728
          211.703013
          -3724.768784
          2701.081748
          -6472.291876
          -5370.390002
          -5084.524915
          211.700402
          -3724.556349
          2701.050479
          2096.441413
          -8676.233529
          -7242.345804
          -3091.885240
          1021.786287
          -2031.160423
          -15000.000000
          -5186.938008
          1604.939048
          -3978.984490
          -49.538177
          -15000.000000
          -15000.000000
          -5986.688005
          -5162.157853
          -6371.972211
          -15000.000000
          -15000.000000
          -15000.000000
          1501.307722
          -3753.564615
          -4739.821825
          -4655.050514
          -15000.000000
          1209.984198
          2115.929084
          2893.120223
          2074.784573
          3000.981314
          -5354.045490
          1209.990800
          2115.926837
          2893.058906
          2074.810404
          3000.985621
          -5354.032892
          -15000.000000
          1501.237900
          -3753.498388
          -4739.838579
          -4655.095983
          -15000.000000
          -15000.000000
          -5986.681069
          -5162.164301
          -6372.030872
          -15000.000000
          -15000.000000
          -15000.000000
          -5186.933024
          1605.024160
          -3978.989938
          -49.562998
          -15000.000000
          2096.450755
          -8676.187622
          -7242.347597
          -3091.896505
          1021.831387
          -2031.057790
          -6472.211749
          -5370.875483
          -5084.518199
          211.707628
          -3724.678631
          2701.070783
          -6472.286590
          -5370.833967
          -5084.539503
          211.686149
          -3724.628423
          2701.089549
          2096.465380
          -8676.249505
          -7242.342000
          -3091.885498
          1021.796708
          -2031.154890
          -15000.000000