<?xml version="1.0"?>
<VTKFile type="PolyData" version="0.1" byte_order="LittleEndian">
  <PolyData>
    <Piece NumberOfPoints="686" NumberOfVerts="686" NumberOfLines="0" NumberOfStrips="0" NumberOfPolys="0">
      <Points>
        <DataArray type="Float64" NumberOfComponents="3" format="ascii">
          -0.937420 -0.037469 33.622950
          -0.689827 -0.098891 33.864957
          -0.077434 -0.017991 33.886950
          -0.565256 -0.512316 33.756282
          -0.520140 -0.407835 33.702727
          -0.589511 -0.004930 33.929655
          -0.106238 0.164045 34.140302
          -0.755542 -0.030841 33.745819
          -0.432480 -0.312361 33.738316
          -1.284724 -0.164183 33.945789
          -0.868948 -0.031830 33.688866
          -0.196928 -0.048667 33.735203
          -1.305892 0.008686 33.783507
          -1.319241 -0.054218 34.613213
          -1.151299 -0.083579 33.611977
          -0.208567 -0.145670 33.731525
          -0.005645 -0.260642 34.034277
          -1.325970 -0.158085 34.042750
          -0.419834 0.038869 34.378230
          -0.558018 -0.185359 33.910991
          -1.289509 -0.058502 34.613210
          -1.126490 -0.002321 33.544748
          -0.291563 -0.074525 33.033275
          -1.319895 0.001329 33.793766
          -0.122741 -0.256315 33.511934
          -1.301727 0.000607 33.770325
          -0.452378 -0.065362 33.827037
          -1.266398 -0.004769 34.113851
          -1.193302 -0.037900 33.595456
          -0.397993 -0.222801 33.819017
          -0.396565 -0.064811 34.152971
          -1.243416 0.015653 33.907380
          -0.443114 -0.029729 34.414894
          -0.509976 0.066055 34.096815
          -1.287141 -0.039651 34.628299
          -0.749244 -0.034935 33.753134
          -0.246291 0.041388 33.779575
          -1.231309 0.034246 34.017839
          -0.969908 -0.042899 33.624863
          0.024092 0.138222 33.697696
          -1.257747 -0.136481 33.925173
          -1.305008 -0.052880 34.590589
          -0.885641 -0.042956 33.651863
          -0.529780 0.337069 33.852356
          -0.328660 0.018735 34.146773
          -0.321973 -0.124510 33.750666
          -0.510878 0.343195 33.842458
          -0.470357 0.339911 33.952184
          -0.333505 0.001165 34.086966
          -0.242884 -1.542980 32.307162
          -0.563291 -0.483461 33.780266
          -4.633448 -2.923814 33.790368
          -0.226122 -0.149937 34.203552
          -4.633385 -2.923463 33.826963
          -0.153375 0.050495 33.967439
          0.043780 -0.933095 34.451985
          -0.496256 0.110390 34.029211
          -2.630747 -1.432928 32.580815
          -0.469177 -0.489514 33.849978
          0.115730 -0.336144 33.908534
          0.044879 -0.285878 34.095252
          -2.332927 -1.505971 35.171541
          -1.246944 0.025033 34.074816
          -4.633594 -0.068295 30.934718
          -0.439701 -1.047111 33.485225
          -4.856551 -0.065876 33.822220
          -4.645437 -2.972714 33.809146
          -4.870965 -0.042017 33.778698
          0.134388 -0.319647 33.928610
          -4.633319 -0.068244 36.682310
          -0.629909 -0.046308 32.821960
          -0.380242 -0.074290 33.045268
          -4.645425 -0.050000 30.886393
          -4.860069 -0.050001 33.816551
          -4.645286 -0.050000 36.731188
          -0.541818 -0.225894 33.866789
          0.038389 0.008736 34.299187
          -4.633594 -0.031705 30.934718
          -0.109345 0.809278 33.453228
          -4.856551 -0.034124 33.822219
          -4.645437 2.872714 33.809146
          -4.870965 -0.057982 33.778698
          -0.393653 0.298496 33.788347
          -4.633319 -0.031756 36.682310
          0.010343 -0.055641 33.504195
          -2.630764 1.332928 32.580755
          -0.602045 -0.128348 33.759928
          -0.139120 0.627334 34.021456
          -0.112422 -0.108953 34.288758
          -2.397431 1.416226 35.245077
          -1.180841 -0.038941 34.044898
          -0.049476 1.323177 32.412031
          -0.310344 -0.066141 33.847177
          -4.633448 2.823814 33.790368
          0.174780 -0.062803 34.537794
          -4.633385 2.823463 33.826963
          0.100942 0.407654 33.830271
          -0.255474 0.847580 34.369986
          -0.049175 -0.148238 33.967341
          -0.387702 0.195444 33.920659
          -0.287915 -0.021811 33.014426
          -2.373604 -3.159252 33.803961
          -1.341506 -0.134451 34.005092
          -0.181925 -0.211263 33.951076
          -0.079530 -0.174294 34.075354
          -0.356328 -0.103627 33.014630
          -2.523893 -1.914647 31.810843
          -0.118698 -0.242903 33.553265
          -0.628653 -0.114240 33.766209
          0.172329 -0.187381 34.133458
          -2.256310 -1.540410 35.335600
          -0.167808 -0.215124 33.958839
          -0.394186 0.180590 33.910225
          0.377116 -0.918162 33.583778
          -0.110938 -0.014435 33.456140
          -0.172586 -0.110735 34.522090
          0.139160 -0.313737 33.948665
          -0.371683 -0.868425 34.589685
          -0.516942 -0.539511 33.752542
          -2.370453 -0.043428 27.706009
          -1.084953 0.002199 33.561906
          0.060101 0.053327 33.967672
          -0.665249 -0.002455 32.855501
          -0.261458 -0.245243 33.736581
          -1.266242 -0.044450 34.600185
          -2.363039 -0.050957 39.921849
          -0.783036 -0.020787 33.717748
          -0.059344 0.803105 33.435331
          -0.227875 -0.360315 33.718958
          -0.289945 -0.011938 34.454033
          0.049073 0.114656 34.293919
          -0.193916 0.712645 34.338537
          -0.278898 0.351736 33.701229
          -0.368494 -0.040218 32.981501
          -2.531382 1.822121 31.806392
          -0.149139 0.105165 34.023717
          -0.538354 0.286867 33.878132
          -0.148313 0.163145 34.183412
          -2.372131 1.465215 35.310639
          -0.266549 0.357268 33.728853
          0.428644 0.331688 33.898772
          -0.099141 -0.052114 34.501006
          -0.297430 -0.019415 33.039043
          -2.372160 3.028065 33.803012
          -1.302604 -0.049765 34.115293
          -0.474429 0.194651 33.934023
          -0.356895 0.114555 34.035975
          -0.388893 -0.977949 33.457915
          -2.647150 -1.419810 32.586535
          -2.364097 -3.152172 33.810184
          -0.032688 -0.527994 33.775557
          -2.367739 -3.161495 33.810654
          -2.383527 -1.540421 35.227679
          0.262467 -0.877823 34.463974
          -2.664044 -1.434990 32.579504
          0.145421 -1.499820 32.233294
          -0.182267 -2.309052 31.575812
          -0.137058 0.053404 33.435462
          -0.379202 -2.312834 36.049849
          0.257066 -0.952466 34.366851
          -2.283387 -1.463879 35.207350
          -2.382265 -0.054830 27.710238
          -0.146885 -2.222186 31.576035
          -2.530075 -1.911423 31.804973
          -0.007272 -2.702777 33.765769
          -2.346359 -1.471705 35.326936
          -0.418902 -2.233383 35.997385
          -2.382952 -0.049759 39.899021
          -0.555609 -0.078074 32.924073
          -0.195972 -0.163964 34.206079
          0.028060 -0.032254 31.345218
          -0.412727 0.018473 34.307051
          -0.068069 -0.044414 36.474864
          -0.270194 -0.102390 34.334477
          0.311536 -0.056634 34.441893
          -2.357633 -0.050450 27.704718
          -0.143617 2.122153 31.575810
          -2.520892 1.817171 31.795077
          0.081797 2.604795 33.780170
          -2.272911 1.417175 35.183422
          -0.418889 2.133388 35.997377
          -2.370194 -0.046682 39.910700
          -2.664072 1.334948 32.579480
          0.159915 1.515598 32.269108
          -0.172995 2.213725 31.581716
          0.071001 -0.125014 33.432962
          -0.379205 2.212834 36.049853
          -0.239056 0.868570 34.400999
          -2.246222 1.483447 35.289657
          -0.165779 0.711062 33.426822
          -2.647142 1.319797 32.586532
          -2.375699 3.029127 33.807954
          -0.126076 0.564214 34.023791
          -2.362672 3.020018 33.816933
          -2.300155 1.375731 35.179740
          -0.217455 0.760351 34.311761
          0.395555 -0.930666 33.597018
          0.136656 -2.308511 31.610202
          -2.669123 -1.415233 32.615475
          -2.375178 -3.155317 33.807095
          -2.257093 -1.497639 35.344546
          -0.452301 -2.275617 35.998770
          0.085589 -0.908549 34.486507
          -0.202987 -2.238197 31.573009
          0.144246 -0.182005 33.470032
          -0.343098 -0.370925 33.710933
          -0.625423 -0.119904 33.938505
          -0.480619 -0.024842 34.146437
          -0.197124 -0.141188 34.479932
          -0.364520 -2.301142 36.024662
          -2.666550 -1.395672 32.599815
          -0.482715 -0.225632 33.782468
          -0.238963 -1.497793 32.331266
          -0.144579 -0.223955 33.922854
          -0.060904 -0.845403 34.457598
          -1.233914 -0.150998 33.988203
          -2.293503 -1.588461 35.224357
          -2.369708 -0.051291 27.704672
          -0.566856 -0.026038 32.869601
          -0.605667 -0.046762 32.963148
          0.261175 0.251020 33.754890
          -0.508746 -0.051548 33.815320
          -0.559488 -0.018563 33.959030
          -2.364997 -0.052602 39.907363
          -2.666616 1.295730 32.599836
          -0.206553 0.028426 33.773322
          -0.199653 1.419608 32.309941
          -0.020839 0.155076 33.618912
          0.344044 0.813307 34.754624
          -1.298949 0.004017 33.793849
          -2.240469 1.356205 35.270693
          -0.199009 2.143054 31.565539
          -0.207280 -0.065490 33.363331
          -0.440164 0.374065 33.869864
          -0.198828 0.282321 33.747039
          -0.542502 -0.026175 34.039766
          -0.086996 -0.166054 34.450912
          -0.364519 2.201137 36.024656
          -0.009105 0.673219 33.416751
          0.129070 2.196520 31.623802
          -2.669019 1.315229 32.615542
          -2.370086 3.035349 33.803996
          -2.306737 1.331045 35.269309
          -0.452312 2.175613 35.998784
          -0.106672 0.725418 34.322674
[...]
      <PointData Scalars="density">
        <DataArray type="Float64" Name="density" format="ascii">
          960.888177
          967.967865
          1009.966220
          969.628030
          927.503953
          989.073416
          1027.394052
          976.500665
          1022.525078
          990.744456
          1025.822829
          996.584162
          961.407609
          991.217705
          993.884884
          1005.080563
          959.950370
          959.453782
          957.986150
          1012.365175
          1013.746260
          995.616348
          1031.369092
          969.685365
          902.500442
          940.475496
          984.185169
          951.662676
          989.328718
          970.095248
          1001.231797
          1013.107231
          959.503593
          980.454274
          997.711874
          979.468508
          970.566145
          971.266026
          997.080629
          1050.803703
          1059.774270
          999.266731
          999.970005
          989.394295
          1007.462258
          1020.240316
          1033.977616
          920.283018
          971.450606
          963.726655
          1023.945708
          591.391855
          964.286477
          591.410479
          984.123064
          986.785720
          1025.326640
          978.202038
          1004.904355
          1018.168165
          960.383257
          979.238092
          1010.562230
          591.489828
          965.617050
          995.458454
          574.307873
          989.911382
          1041.146460
          591.338681
          987.344944
          996.681026
          574.545378
          1011.598746
          574.293283
          972.932899
          927.661515
          591.489828
          985.298513
          995.459049
          574.307874
          989.912701
          1008.474706
          591.338681
          1009.014556
          978.184249
          1012.659221
          1006.660420
          1017.730766
          994.263806
          1000.628564
          1005.488906
          1026.169041
          591.391855
          965.577745
          591.410479
          956.972240
          951.946185
          1044.619050
          950.755694
          999.126607
          830.387583
          1027.300710
          985.091357
          1059.080938
          1008.002892
          825.871777
          971.180885
          1036.827497
          1012.691129
          1016.891290
          1013.085278
          920.008486
          1024.872147
          1031.921233
          973.424434
          1035.410838
          975.922008
          1028.348527
          826.826910
          1033.595376
          1007.475324
          1010.370096
          1018.673579
          985.702503
          826.354918
          986.105185
          1061.049599
          1023.913358
          970.326237
          979.816468
          1025.741280
          994.009422
          1015.343178
          826.523625
          967.702660
          1022.399708
          944.781170
          968.788283
          990.357216
          1009.832108
          947.044859
          1009.334440
          828.271765
          964.413629
          1056.028845
          972.035206
          972.832422
          1013.818602
          830.889337
          1009.889082
          829.859448
          1006.468245
          1043.315309
          997.974683
          1005.534853
          1021.125094
          992.236947
          1002.544167
          971.426120
          1071.860718
          822.434325
          1016.985104
          827.896380
          1026.552858
          1025.246559
          987.139335
          811.153428
          955.974953
          970.767053
          983.020424
          959.439681
          942.466417
          976.081080
          972.090005
          826.418412
          1018.287613
          813.788465
          1007.148333
          1003.063166
          987.140014
          821.473302
          997.981466
          961.777598
          1020.634292
          960.071268
          1002.546470
          1005.113990
          950.696297
          993.667848
          1013.817007
          829.645402
          1006.348480
          830.851560
          995.807011
          994.291710
          994.675653
          985.791553
          988.432757
          830.686385
          987.480758
          992.629232
          982.185958
          971.156946
          927.182565
          1035.500847
          1011.100361
          1004.486422
          985.995882
          997.986520
          990.035802
          1031.799984
          1004.361285
          1045.102264
          1001.907061
          1076.258240
          981.408430
          820.557557
          1009.230591
          982.620368
          1001.454055
          1024.861708
          1050.374814
          824.924480
          990.078744
          990.182648
          1021.903188
          954.145438
          1015.945030
          974.262367
          1025.824442
          972.127854
          958.089288
          957.496721
          1003.845363
          968.526667
          990.299904
          997.988640
          1006.705490
          990.175951
          988.420016
          829.526440
          1049.651570
          992.627814
          961.686330
          1004.784894
          821.938479
          1016.278443
          976.473702
          990.712148
          1016.505479
          1033.655053
          828.179529
          1015.389367
          999.098772
          938.869125
          1010.681429
          1002.975407
          955.013634
          1023.104611
          1049.667560
          997.695175
          1026.918790
          1028.013411
          992.912295
          973.721183
          992.487817
          976.379364
          1008.669246
          996.443707
          1060.426225
          985.241926
          1087.423030
          1012.539881
          1010.614975
          991.085473
          984.936823
          1011.027200
          1037.861578
          963.889579
          823.851637
          1014.278639
          899.747906
          972.527379
          1032.966441
          989.583519
          1017.061101
          995.211457
          823.964836
          1021.013198
          1050.458190
          1004.843137
          1022.865166
          1008.957013
          956.889835
          928.293568
          1016.768857
          986.903617
          955.646789
          978.787001
          976.794556
          964.295213
          960.514812
          1014.075459
          965.568701
          1009.195800
          891.197953
          978.983798
          1019.738427
          978.132280
          1062.738179
          1018.710120
          978.126955
          985.914479
          1047.613916
          1000.723771
          989.763997
          1051.495629
          1019.454479
          915.458762
          983.437324
          956.686419
          1010.013455
          979.060612
          1041.949386
          1029.442599
          979.818356
          985.913921
          956.350476
          949.355149
          961.470867
          1019.615639
          984.188940
          1009.200813
          994.169362
          982.931336
          1003.620815
          984.984621
          991.922198
          1002.118286
          959.326833
          1004.329598
          1001.040387
          981.427697
          1065.077757
          971.229128
          1026.320046
          1001.694607
          987.753101
          970.279795
          955.443005
          1038.358691
          1014.279744
          985.774168
          1009.189380
          982.445009
          1004.951906
          1023.728886
          978.283863
          904.907810
          942.038243
          992.324745
          985.912317
          925.334018
          991.341009
          975.899435
          1008.532601
          1017.406026
          1034.053530
          962.251365
          991.015641
          1010.505198
          979.093034
          939.804763
          991.788448
          997.370427
          985.912833
          940.520052
          1013.861815
          955.288151
          1019.606083
          991.899999
          1009.195417
          915.729220
          1002.351556
          926.631760
          1009.681305
          991.637716
          1005.480063
          994.270433
          1019.370394
          1004.853030
          961.020672
          824.198779
          1027.459100
          1063.093723
          990.903033
          919.484246
          936.637467
          827.480661
          990.801287
          954.666331
          971.574464
          974.456178
          1002.108823
          1011.013006
          1016.399883
          1008.421342
          980.504180
          983.250050
          1024.414887
          1009.481902
          936.490661
          1008.335123
          996.432445
          992.324637
          1125.828441
          990.051594
          953.818138
          1006.625481
          1012.238769
          1032.035981
          936.259254
          941.131883
          991.652635
          1038.163510
          1012.634964
          828.227909
          888.213769
          1041.385103
          1020.766924
          980.361837
          1002.095851
          1093.186467
          969.911340
          829.282376
          1005.645004
          1005.496151
          1024.936226
          983.912053
          992.587598
          1008.452067
          985.738410
          988.421179
          829.477111
          1016.925573
          992.631132
          964.009829
          971.068345
          954.405998
          1015.966196
          1013.191822
          964.807759
          962.885325
          997.980826
          990.077160
          1055.489770
          1012.774991
          945.343097
          971.032577
          995.219955
          915.635810
          819.769703
          985.815155
          983.435715
          960.551297
          1031.010656
          1069.307059
          774.197276
          990.077934
          949.819835
          985.205727
          1010.066372
          957.343891
          960.149881
          1013.159416
          972.134885
          1058.718416
          961.094577
          930.156112
          982.747067
          1048.727555
          997.983985
          972.757834
          990.175095
          988.420308
          829.068081
          968.173281
          992.629235
          983.047285
          986.373292
          1013.817165
          827.204144
          987.215313
          824.355702
          1044.541409
          1017.022077
          997.981824
          950.813789
          1021.189054
          906.389084
          1002.540753
          1004.811297
          1050.316022
          817.402020
          1017.136330
          816.920741
          1051.365452
          948.742190
          987.141555
          792.346844
          986.009554
          939.578328
          983.048651
          942.402862
          961.875815
          1012.670062
          1010.637734
          816.547709
          1018.286369
          830.033932
          988.764412
          1002.073210
          987.141477
          809.742780
          997.981313
          942.797623
          1020.644521
          1010.290314
          1002.543530
          1021.465779
          1005.209287
          920.896576
          1013.817008
          828.734652
          995.562933
          827.533609
          991.886929
          1004.677330
          981.157360
          974.166908
          993.192395
          828.452323
          979.673763
          989.606039
          1074.481495
          970.358429
          825.831185
          1008.070226
          1018.280689
          1001.576672
          941.326565
          1013.208357
          1045.820276
          976.421490
          1052.007150
          991.108588
          1032.386104
          1023.085060
          912.581631
          822.029449
          953.824861
          850.361527
          994.854287
          954.765304
          988.272998
          812.065703
          1038.613861
          915.168498
          1052.511025
          996.144053
          930.836383
          1009.587818
          945.758314
          1022.105065
          826.815592
          925.393165
          979.292730
          964.468185
          958.266675
          1025.089799
          983.150981
          935.982800
          1005.068870
          829.193216
          906.963771
          947.035849
          1038.396959
          990.406442
          1069.502586
          591.391855
          971.009556
          591.410479
          988.046868
          983.755871
          991.394529
          978.184577
          990.002924
          1012.735115
          1000.723653
          938.203832
          940.971912
          591.489828
          1006.793567
          1002.223773
          574.307874
          993.798983
          863.909101
          591.338681
          1012.126048
          1027.419102
          574.545378
          1020.922988
          574.293283
          1046.776580
          1022.801510
          591.489828
          954.942500
          1002.177519
          574.307874
          994.319060
          973.722441
          591.338681
          1001.181024
          978.184667
          990.319817
          1042.763471
          985.591554
          1005.741120
          1020.550535
          958.330670
          1016.561667
          591.391855
          1008.886117
          591.410479
          1002.287462
          999.764461
          1057.655948
          1082.028817
          1040.656509
          863.086118
          1006.928253
          944.789875
          956.498678
          981.025109
          953.645860
          991.493589
          1042.755572
          1073.373867
          1007.571548
          1001.919369
          912.655980
          977.735392
          982.921759
          901.344140
          968.412187
          998.491296
          996.779096
          980.378512
          1000.742806
          996.685233
          1038.883960
          949.426319
          1006.033889
          997.804312
          984.659220
          957.925301
          1020.592578
          985.547399
          974.007079
          992.255067
          1010.743416
          945.688044
          1011.669625
          953.170699
          940.737869
          893.088751
          945.819033
          986.957799
          1010.928878
          972.143132
          922.945561
          959.681961
          974.429773
          1005.855443
          1078.894087
        </DataArray>
        <DataArray type="Float64" Name="pressure" format="ascii">
          -4693.418813
          -3843.856197
          1195.946342
          -3644.636397
          -8699.525619
          -1311.190100
          3287.286236
          -2819.920239
          2703.009390
          -1110.665290
          3098.739508
          -409.900620
          -4631.086960
          -1053.875412
          -733.813911
          609.667604
          -4805.955604
          -4865.546156
          -5041.662008
          1483.820951
          1649.551255
          -526.038212
          3764.291043
          -3637.756221
          -11699.946999
          -7142.940495
          -1897.779675
          -5800.478843
          -1280.553870
          -3588.570255
          147.815589
          1572.867772
          -4859.568853
          -2345.487139
          -274.575096
          -2463.779052
          -3532.062592
          -3448.076899
          -350.324476
          6096.444304
          7172.912375
          -87.992248
          -3.599381
          -1272.684549
          895.471004
          2428.837933
          4077.313876
          -9566.037874
          -3425.927288
          -4352.801344
          2873.484970
          -49032.977403
          -4285.622708
          -49030.742486
          -1905.232279
          -1585.713655
          3039.196800
          -2615.755420
          588.522623
          2180.179746
          -4754.009101
          -2491.429000
          1267.467570
          -49021.220682
          -4125.953963
          -544.985535
          -51083.055181
          -1210.634153
          4937.575252
          -49039.358289
          -1518.606661
          -398.276900
          -51054.554642
          1391.849549
          -51084.806008
          -3248.052177
          -8680.618181
          -49021.220680
          -1764.178403
          -544.914060
          -51083.055167
          -1210.475909
          1016.964758
          -49039.358288
          1081.746729
          -2617.890132
          1519.106474
          799.250429
          2127.691904
          -688.343240
          75.427656
          658.668733
          3140.284872
          -49032.977404
          -4130.670613
          -49030.742480
          -5163.331222
          -5766.457827
          5354.286037
          -5909.316776
          -104.807157
          -20353.490077
          3276.085167
          -1789.037214
          7089.712528
          960.347064
          -20895.386731
          -3458.293809
          4419.299666
          1522.935524
          2026.954773
          1570.233405
          -9598.981631
          2984.657606
          3830.547962
          -3189.067940
          4249.300519
          -2889.358996
          3401.823259
          -20780.770817
          4031.445060
          897.038914
          1244.411461
          2240.829515
          -1715.699619
          -20837.409861
          -1667.377814
          7325.951855
          2869.603005
          -3560.851501
          -2422.023802
          3088.953594
          -718.869345
          1841.181352
          -20817.165016
          -3875.680785
          2687.964966
          -6626.259623
          -3745.406092
          -1157.134053
          1179.852987
          -6354.616883
          1120.132798
          -20607.388222
          -4270.364542
          6723.461366
          -3355.775246
          -3260.109396
          1658.232215
          -20293.279562
          1186.689788
          -20416.866221
          776.189353
          5197.837058
          -243.038087
          664.182397
          2535.011339
          -931.566378
          305.300002
          -3428.865632
          8623.286205
          -21307.880973
          2038.212448
          -20652.434446
          3186.342943
          3029.587055
          -1543.279772
          -22661.588643
          -5283.005593
          -3507.953603
          -2037.549168
          -4867.238308
          -6904.030020
          -2870.270445
          -3349.199422
          -20829.790511
          2194.513590
          -22345.384200
          857.799978
          367.579949
          -1543.198296
          -21423.203819
          -242.224028
          -4586.688291
          2476.115072
          -4791.447875
          305.576388
          613.678848
          -5916.444342
          -759.858279
          1658.040831
          -20442.551779
          761.817659
          -20297.812778
          -503.158710
          -684.994808
          -638.921679
          -1705.013608
          -1388.069152
          -20317.633796
          -1502.308991
          -884.492129
          -2137.685019
          -3461.166509
          -8738.092143
          4260.101688
          1332.043342
          538.370666
          -1680.494139
          -241.617656
          -1195.703745
          3815.998132
          523.354194
          5412.271620
          228.847267
          9150.988816
          -2230.988447
          -21533.093140
          1107.670962
          -2085.555892
          174.486557
          2983.404977
          6044.977740
          -21009.062423
          -1190.550749
          -1178.082284
          2628.382527
          -5502.547459