<?xml version="1.0"?>
<VTKFile type="PolyData" version="0.1" byte_order="LittleEndian">
  <PolyData>
    <Piece NumberOfPoints="396" NumberOfVerts="396" NumberOfLines="0" NumberOfStrips="0" NumberOfPolys="0">
      <Points>
        <DataArray type="Float64" NumberOfComponents="3" format="ascii">
          1.281470 0.244961 1.846288
          -0.804975 0.654427 1.854586
          -0.513986 0.427671 1.845549
          1.467075 3.842852 -0.500000
          0.080096 -1.594847 -0.500000
          1.118971 0.243463 1.826359
          1.519952 3.878656 -0.500000
          -0.884834 -3.752389 -0.500000
          -0.735482 0.507731 1.844507
          2.966964 -1.353340 -0.500000
          -0.872927 -0.651483 1.846108
          -0.737059 -0.293859 1.845931
          1.481969 3.836294 -0.500000
          -0.467918 0.190427 1.845044
          -0.631157 -0.887476 1.827575
          1.330969 3.544530 -0.500000
          -0.883165 0.761989 1.845444
          2.996025 -0.888655 -0.500000
          -0.625205 -3.853770 -0.500000
          -0.521220 0.423701 1.855249
          -1.258766 1.101684 -0.500000
          -0.146285 -3.898661 -0.500000
          -1.457116 1.405384 -0.476621
          3.014588 -1.098860 -0.500000
          0.001208 -1.477088 -0.500000
          1.203861 3.344641 -0.500000
          -1.327391 1.708540 -0.452239
          -0.333365 -0.447668 1.845808
          -2.161801 3.421258 -0.500000
          -0.509634 1.815844 -0.272380
          0.298684 -1.756985 -0.500000
          -0.894985 0.745377 1.845878
          -0.617756 -0.134062 1.845871
          -0.091567 -1.389638 -0.500000
          -2.184662 3.417347 -0.500000
          1.129525 -3.684518 -0.500000
          2.961459 -1.339185 -0.500000
          -0.628964 0.490133 1.853994
          -0.760041 -0.323013 1.845924
          -0.357005 1.105002 -0.500000
          -0.903517 -3.778391 -0.500000
          -0.346901 -3.805759 -0.500000
          -3.924039 -1.183496 -0.500000
          -0.359958 -0.790659 1.851504
          1.453353 -3.746707 -0.500000
          2.986303 -0.904138 -0.500000
          -0.311338 1.226632 -0.500000
          -0.333280 -3.896536 -0.500000
          -0.539926 -3.695104 -0.500000
          1.171743 0.109994 1.845926
          -2.113322 3.426300 -0.500000
          -3.983448 -1.206108 -0.500000
          -1.315764 1.661397 -0.458402
          -0.409338 1.233527 -0.500000
          -0.513933 1.806568 -0.279367
          0.618102 0.049556 1.851409
          -0.771455 -3.688667 -0.500000
          -1.242995 1.222011 -0.500000
          -0.498817 1.933147 -0.282874
          -1.313644 1.566921 -0.497319
          -3.943538 -1.158310 -0.500000
          0.461830 -0.556934 1.853314
          0.886938 2.951849 -0.500000
          2.839381 -0.945154 -0.500000
          -0.791579 -0.401808 1.844621
          -0.928440 0.815280 1.846494
          2.943050 -0.922886 -0.500000
          -1.351092 1.426400 -0.470974
          -0.782064 -0.396687 1.846102
          -0.181677 -3.789053 -0.500000
          -0.803669 0.705674 1.845950
          1.240700 3.473301 -0.500000
          4.054388 -2.789827 -0.452049
          0.515774 -0.481523 1.845821
          2.895640 -1.293272 -0.500000
          2.921828 -0.858990 -0.500000
          -3.989494 -1.221545 -0.500000
          2.269676 -0.160430 -0.500000
          -0.699031 -0.976245 1.846871
          -0.515772 1.947531 -0.279096
          1.336938 0.364858 1.849912
          -0.623679 0.056374 1.844997
          -2.115709 3.408231 -0.500000
          -0.450986 0.183312 1.846162
          -1.478859 1.526491 -0.469907
          -0.476077 -0.265447 1.851995
          0.878911 -3.613296 -0.500000
          1.075478 2.897569 -0.500000
          -0.446977 1.264708 -0.500000
          -2.152861 3.420708 -0.500000
          0.819823 2.986939 -0.500000
          1.247359 3.755579 -0.500000
          1.161797 2.961475 -0.500000
          0.869556 -3.621188 -0.500000
          -0.640264 0.132756 1.851458
          -0.757540 -3.704257 -0.500000
          1.305360 0.378938 1.850119
          -0.179907 -3.816628 -0.500000
          -1.497582 1.491589 -0.477284
          1.320472 0.362422 1.851277
          -0.354679 -0.436350 1.846568
          -0.755132 -3.847220 -0.500000
          3.628949 2.237668 -0.500000
          0.984396 3.450518 -0.500000
          2.862486 -0.929025 -0.500000
          2.968727 -0.898414 -0.500000
          -1.234799 1.111533 -0.500000
          2.342851 0.102771 -0.500000
          -0.497089 -0.755393 1.846360
          -0.455923 -3.795537 -0.500000
          -1.243482 1.109417 -0.500000
          -0.752087 -3.785248 -0.500000
          -0.583395 1.852374 -0.316774
          -2.108015 3.404959 -0.500000
          -2.204193 -0.294966 -0.500000
          1.331694 0.317594 1.851746
          -0.487584 -0.274033 1.853398
          -0.408878 -0.843619 1.845716
          -0.678266 0.351052 1.852377
          -0.488614 -0.697696 1.846027
          -0.473550 0.346106 1.846124
          -0.432390 0.257771 1.846146
          -0.509562 1.848205 -0.284695
          -0.465236 1.859117 -0.280182
          -0.615032 0.175427 1.845488
          0.547890 -0.624900 1.851930
          -0.951422 -3.788967 -0.500000
          -0.403290 1.095475 -0.500000
          -0.425011 1.180373 -0.500000
          -0.169372 -3.859511 -0.500000
          -0.954082 0.765608 1.843370
          -0.327759 -0.576448 1.846069
          -3.955323 -1.211543 -0.500000
          -2.149393 3.383947 -0.500000
          0.366190 -1.530593 -0.500000
          0.314917 -1.663889 -0.500000
          -1.237855 1.111725 -0.500000
          -0.869170 -0.852895 1.852381
          -0.368586 -0.338020 1.845937
          -0.490580 1.968820 -0.284910
          -0.709654 -0.902031 1.853764
          -1.245622 1.099134 -0.500000
          -0.571783 -3.694088 -0.500000
          0.028963 -1.758735 -0.500000
          4.024017 -2.745884 -0.475464
          -0.598234 -0.609999 1.852467
          -0.878453 -3.835193 -0.500000
          -0.630318 -0.142274 1.852205
          0.740870 0.199924 1.851047
          5.285679 -2.750007 -0.500000
          1.155126 3.058499 -0.500000
          3.031268 -1.300424 -0.500000
          -0.475527 1.057756 -0.500000
          -0.911666 -3.747098 -0.500000
          0.677474 0.182822 1.850098
          1.522277 3.846054 -0.500000
          0.788661 0.109229 1.845094
          -0.063623 -1.492274 -0.500000
          0.873533 3.304802 -0.500000
          0.526543 -0.576664 1.845161
          -0.085849 -1.462226 -0.500000
          -0.624203 -3.748913 -0.500000
          -2.136734 3.453199 -0.500000
          1.174949 3.017533 -0.500000
          0.911464 -3.629439 -0.500000
          -0.487986 -1.061849 1.292745
          -0.454541 -1.026337 1.268780
          0.896282 2.911658 -0.500000
          -0.944853 0.763025 1.846363
          3.084505 -1.338010 -0.500000
          -1.433113 1.466999 -0.491887
          1.022288 2.847699 -0.500000
          1.243475 -3.845446 -0.500000
          0.205719 -1.608926 -0.500000
          -2.035262 2.845721 -0.500000
          -1.243130 1.117817 -0.500000
          1.236853 2.993517 -0.500000
          -2.132881 3.417239 -0.500000
          0.956145 -3.715633 -0.500000
          2.350367 0.100675 -0.500000
          4.045825 -2.766953 -0.491904
          -0.523708 -0.780973 1.846365
          -0.677720 0.638592 1.853375
          0.334150 -1.729484 -0.500000
          -0.602462 0.619958 1.846454
          1.196457 2.899102 -0.500000
          0.220730 -1.738677 -0.500000
          -0.726990 -0.778650 1.844435
          -0.501960 0.493809 1.852503
          0.033123 -1.336997 -0.500000
          0.918951 -3.680202 -0.500000
          5.520351 3.771888 -0.500000
          1.379091 3.623377 -0.500000
          -0.906520 0.808171 1.846118
          -0.470809 1.107789 -0.500000
          0.822296 3.052725 -0.500000
          0.233995 -1.562433 -0.500000
          1.211593 3.163797 -0.500000
          1.255117 -3.712364 -0.500000
          0.566907 -0.543942 1.853225
          -1.219773 1.575971 -0.482693
          -0.705509 -0.970495 1.849756
          1.455731 3.817838 -0.500000
          -0.935864 -3.752880 -0.500000
          -0.071011 1.208839 -0.500000
          -2.109272 3.409706 -0.500000
          0.481960 -0.569038 1.852990
          0.210446 -1.279812 -0.500000
          1.117041 2.846060 -0.500000
          0.985552 3.376829 -0.500000
          4.972148 3.419091 -0.500000
          0.591385 -0.550785 1.846147
          0.049959 -1.351816 -0.500000
          -0.860650 -0.916903 1.851847
          -0.592902 -0.189462 1.845899
          -0.190866 -3.861638 -0.500000
          -3.010736 1.932100 -0.454337
          -0.837425 -0.468210 1.845864
          -0.467467 -3.683016 -0.500000
          0.094362 -1.659150 -0.500000
          0.420650 -0.570275 1.846614
          0.330147 -1.686489 -0.500000
          0.886116 3.323925 -0.500000
          -3.964258 -1.161004 -0.500000
          -0.560614 1.089968 -0.500000
          1.426278 -3.739142 -0.500000
          -0.758375 0.552040 1.853011
          -1.267936 1.096442 -0.500000
          -0.083086 -1.395480 -0.500000
          -0.339126 -0.438279 1.845553
          0.908781 3.332744 -0.500000
          0.711176 0.022665 1.852150
          -0.834680 -0.822341 1.852221
          -0.118777 -3.836075 -0.500000
          1.189551 3.568123 -0.500000
          1.226746 0.051776 1.850322
          -0.399709 -3.896165 -0.500000
          -0.612553 0.021265 1.850380
          0.335835 -1.634353 -0.500000
          0.896008 3.364390 -0.500000
          -0.919986 0.818376 1.846491
          -3.988146 -1.210856 -0.500000
          -0.800629 -0.463349 1.845730
          1.041461 3.075089 -0.500000
          -0.922100 -3.771448 -0.500000
          -0.837409 -0.767735 1.851871
          -3.012440 1.920611 -0.448252
          1.014491 3.400088 -0.500000
          0.881087 3.169847 -0.500000
          1.522471 3.829592 -0.500000
          -0.557400 -3.824779 -0.500000
          -0.038980 -1.400720 -0.500000
          -0.720566 -0.970066 1.850948
          1.351039 -3.777301 -0.500000
          1.556298 3.813370 -0.500000
          1.142185 0.094674 1.847453
          2.952100 -0.890154 -0.500000
          1.113975 3.357186 -0.500000
          2.846077 -0.942338 -0.500000
          -0.853670 -0.484000 1.845901
          -0.728910 -0.392745 1.846012
          1.052278 3.481439 -0.500000
          -0.619572 -0.887683 1.845793
          0.784577 0.066928 1.851872
          -0.522246 1.960565 -0.286988
          -0.506922 -0.501780 1.845851
          1.111887 0.195916 1.845880
          -0.865383 -0.629715 1.848919
          -0.903018 -0.826916 1.851999
          -0.921190 0.648125 1.851739
          1.447162 -3.751896 -0.500000
          1.138302 0.112708 1.851698
          0.756176 0.130541 1.844645
          1.369731 -3.786042 -0.500000
          0.870852 0.056271 1.851347
          -0.627970 0.009814 1.844644
          2.952188 -1.321782 -0.500000
          1.100261 3.302686 -0.500000
          -0.903179 -0.784234 1.851386
          0.335443 -1.482051 -0.500000
          1.282313 3.667634 -0.500000
          0.674116 0.062986 1.846100
          -0.559939 1.925577 -0.280538
          1.318028 0.335361 1.848555
          3.037131 -1.322208 -0.500000
          1.163155 0.089245 1.845840
          -0.438723 -0.697417 1.855586
          -0.363287 -0.394084 1.845837
          -3.007335 1.898396 -0.458756
          1.011493 -3.745802 -0.500000
          -2.202216 -0.302774 -0.500000
          -3.925383 -1.196593 -0.500000
          3.030266 -1.328305 -0.500000
          0.153150 -1.289605 -0.500000
          -0.547198 1.126768 -0.500000
          -1.269497 1.289943 -0.495824
          1.332599 0.305852 1.851444
          -0.694841 0.306039 1.845912
          1.531753 3.814405 -0.500000
          -0.517828 -0.443944 1.845827
          -0.477823 -1.054412 1.268381
          0.329525 -1.567810 -0.500000
          -0.640191 -3.720615 -0.500000
          -0.538397 0.433191 1.844948
          -1.461368 1.495212 -0.473147
          1.184677 3.641523 -0.500000
          -1.308138 1.351078 -0.498984
          -1.233097 1.109170 -0.500000
          1.095078 3.020350 -0.500000
          -0.160910 -3.838721 -0.500000
          0.651272 0.164209 1.847387
          1.330071 -3.672032 -0.500000
          -0.406720 1.026324 -0.500000
          1.171321 -3.682068 -0.500000
          -0.340488 1.198993 -0.500000
          0.754074 0.076447 1.850840
          2.938775 -1.268434 -0.500000
          0.870946 -3.589654 -0.500000
          -2.969513 1.964526 -0.461559
          0.813285 3.102121 -0.500000
          -2.191677 -0.298642 -0.500000
          -2.188431 -0.300548 -0.500000
          2.872571 -1.299178 -0.500000
          0.101116 -1.322402 -0.500000
          -2.193985 -0.298583 -0.500000
          -1.393008 1.657632 -0.478662
          1.285247 0.381801 1.849017
          0.441319 -0.575859 1.851881
          1.084300 -3.715329 -0.500000
          -0.572550 1.854288 -0.280982
          2.933888 -0.876499 -0.500000
          1.468365 3.762403 -0.500000
          -0.113697 -3.809300 -0.500000
          -2.191288 -0.295133 -0.500000
          -0.498585 -1.056609 1.266670
          0.875375 -3.617120 -0.500000
          1.459450 -3.789425 -0.500000
          -0.437663 -3.693751 -0.500000
          -1.295215 1.685671 -0.494783
          0.262579 -1.438256 -0.500000
          0.400965 -0.539973 1.853101
          -0.470816 1.024242 -0.500000
          -0.563965 -0.250305 1.854161
          -2.192011 -0.299703 -0.500000
          0.852887 -3.671388 -0.500000
          -0.476750 -1.069526 1.299081
          -0.578233 1.852690 -0.284516
          1.316026 0.146881 1.851840
          3.100437 -1.330176 -0.500000
          0.533338 -0.554588 1.854523
          1.220610 3.618957 -0.500000
          -3.972809 -1.200069 -0.500000
          -1.373995 1.677451 -0.486571
          0.599534 -0.594451 1.851820
          -2.192381 -0.301913 -0.500000
          1.072255 0.151744 1.851070
          0.635038 0.074856 1.851205
          1.472462 -3.677489 -0.500000
          0.938803 0.062170 1.851746
          0.792992 3.144723 -0.500000
          -0.273152 -0.644931 1.845975
          -0.315039 -0.703322 1.844847
          -0.537238 0.513353 1.848496
          -2.159186 3.373592 -0.500000
          -0.680192 0.102853 1.846511
          -0.651834 -0.010546 1.846268
          -1.226135 1.100775 -0.500000
          0.872470 -3.617908 -0.500000
          -0.343971 1.174034 -0.500000
          -3.952948 -1.206290 -0.500000
          -0.055602 -1.521226 -0.500000
          -0.467505 0.298556 1.853819
          1.160154 2.873929 -0.500000
          -1.304230 1.664424 -0.469779
          -0.651012 -0.233943 1.845166
          0.805623 3.014977 -0.500000
          -0.332936 -0.702655 1.845987
          -2.199025 -0.302315 -0.500000
          1.410524 -3.810289 -0.500000
          1.321433 -3.655750 -0.500000
          1.246941 3.541396 -0.500000
          1.026316 -3.758968 -0.500000
          -1.306056 1.618693 -0.495731
          -3.947039 -1.260902 -0.500000
          -0.514323 -1.060343 1.270273
          0.808315 3.061091 -0.500000
          -0.723183 0.578555 1.853323
          -0.305113 -0.491178 1.843847
          1.233402 3.459824 -0.500000
          -0.513498 -1.050992 1.286232
          -0.882657 0.726678 1.847228
          -0.526950 0.172874 1.845260
          -0.863001 -0.644802 1.846196
          -0.531970 -0.611730 1.845741
          1.533829 3.809563 -0.500000
          -0.105090 -3.773716 -0.500000
        </DataArray>
      </Points>
      <PointData Scalars="density">
        <DataArray type="Float64" Name="density" format="ascii">
          1100.683814
          1123.130910
          1087.120214
          999.362087
          1047.377854
          967.805130
          898.697336
          975.871335
          1014.882312
          949.660717
          931.089685
          972.234694
          997.199632
          956.395128
          1012.022399
          886.933002
          1041.770972
          857.470891
          951.068014
          1093.403115
          989.783698
          898.610769
          800.818896
          897.569054
          1055.794229
          898.124509
          866.073604
          984.334675
          996.924972
          956.857862
          811.294975
          1070.180136
          1004.345780
          813.671961
          973.594903
          1006.368275
          936.290639
          1112.872389
          958.926922
          1017.754198
          952.933410
          1028.496843
          975.431927
          864.451431
          934.170636
          856.544067
          830.283743
          909.268084
          933.715153
          974.138902
          993.916603
          991.657195
          981.670946
          927.933994
          935.477231
          842.358991
          1039.127900
          1009.531930
          989.761990
          1112.885550
          972.867561
          1005.026066
          952.960385
          840.249244
          919.368741
          909.338522
          931.264440
          1013.376441
          948.634181
          978.861439
          1114.063196
          988.879830
          500.000000
          941.824438
          871.103328
          855.824075
          982.474421
          500.000000
          825.720907
          972.272880
          851.341287
          999.446508
          997.410105
          912.711069
          937.005949
          953.588586
          961.725116
          988.216739
          820.717797
          1001.685922
          854.646196
          784.018742
          982.734320
          962.953751
          1010.104184
          1082.499375
          860.613855
          996.331666
          831.447995
          895.777825
          1000.050341
          1028.302348
          500.000000
          923.920161
          856.315963
          913.752144
          997.020073
          500.000000
          1070.933912
          990.456140
          999.425227
          1132.349891
          951.618174
          990.681400
          834.908570
          945.495487
          1000.342391
          823.776426
          1020.455152
          1114.137651
          1040.992228
          915.421854
          1008.879894
          966.539280
          1085.749553
          952.063585
          819.492447
          1062.323606
          1071.485501
          982.184080
          935.288105
          1068.892679
          1001.850720
          992.340278
          837.064827
          1000.605684
          998.709099
          991.314746
          886.624772
          908.873287
          1063.513395
          988.892076
          972.970932
          534.868753
          500.000000
          1026.706794
          939.091828
          1003.368452
          895.962266
          500.000000
          981.539840
          957.733291
          947.431561
          928.468575
          859.841481
          960.878053
          1015.691950
          918.268445
          914.267715
          1027.497830
          816.585252
          1087.725371
          982.434758
          966.170407
          1023.705683
          639.596426
          610.528049
          852.072819
          959.833093
          838.377537
          992.476113
          835.904276
          845.078297
          1127.781548
          500.000000
          1009.231617
          799.087067
          1005.327619
          1053.005091
          500.000000
          500.000000
          1057.120761
          1013.638533
          860.373357
          887.672266
          841.437477
          872.979755
          1177.938877
          947.916765
          914.044856
          1045.994103
          500.000000
          953.655766
          943.681477
          1052.698842
          957.662668
          1133.448808
          736.164405
          1057.291391
          985.992462
          828.953654
          855.268551
          1024.953746
          894.234841
          500.000000
          994.278588
          1029.092411
          563.668261
          803.826522
          1032.917852
          500.000000
          934.107012
          943.342329
          884.611428
          1026.734785
          992.032637
          500.000000
          885.110335
          847.624580
          901.947433
          928.984525
          966.801260
          896.854127
          979.107178
          824.103958
          980.837942
          1044.337186
          980.702944
          797.169559
          972.937232
          952.691388
          912.704307
          1075.076836
          898.263236
          1010.188692
          765.962976
          849.126876
          1000.036165
          965.126834
          856.017942
          907.423741
          989.108614
          940.246455
          1145.861412
          928.169159
          1069.599241
          500.000000
          1035.163878
          1057.992804
          975.770376
          988.263468
          925.971600
          896.296831
          1055.490723
          913.499656
          917.077372
          905.867732
          1043.879005
          829.212431
          872.319326
          1029.148964
          1005.713960
          1012.242694
          994.774420
          954.564615
          1131.944241
          997.338141
          945.158740
          923.741494
          981.328777
          946.646185
          967.871961
          997.060784
          1045.992325
          897.357797
          982.973495
          960.612631
          1015.226026
          901.172886
          812.459281
          970.154919
          939.541424
          995.246166
          914.456532
          945.721460
          928.508229
          1121.379979
          975.797401
          500.000000
          1000.068142
          835.312690
          985.205830
          950.911586
          743.219644
          877.208242
          957.947373
          936.164175
          933.361028
          965.336479
          1125.440364
          636.402299
          1016.819485
          1077.130189
          1114.862582
          952.121873
          874.863286
          961.382776
          996.353480
          1097.127013
          967.735392
          875.693318
          1008.793955
          890.339293
          990.801777
          954.034114
          1022.498095
          958.027614
          907.027373
          500.000000
          918.714292
          835.166144
          834.599663
          782.717808
          883.943683
          834.782281
          991.035201
          850.661433
          970.703788
          1021.372964
          992.814570
          898.204947
          1047.246603
          872.817264
          835.075889
          640.427653
          953.263461
          887.848988
          835.497599
          900.988509
          898.591635
          889.609316
          869.188731
          1061.299272
          835.301506
          950.725845
          637.984503
          973.453518
          889.704338
          811.533994
          1028.127049
          957.481251
          999.046122
          947.603563
          891.528245
          834.367775
          916.361877
          864.986687
          836.968487
          856.615350
          870.950006
          844.571755
          925.626289
          998.631062
          975.716153
          912.851300
          962.742622
          981.609433
          950.666547
          999.093919
          1002.321265
          906.608350
          1037.935948
          843.767595
          979.536645
          1058.936408
          837.923127
          967.514059
          833.770202
          947.351337
          975.185804
          1004.696968
          964.935018
          1062.322299
          944.262460
          627.733382
          887.428250
          1088.229844
          948.166229
          993.259124
          632.680718
          1089.708436
          1069.901635
          946.288600
          1092.605038
          964.926869
          835.202031
        </DataArray>
        <DataArray type="Float64" Name="pressure" format="ascii">
          3020.514427
          3693.927304
          2613.606410
          -19.137390
          1421.335632
          -965.846096
          -3039.079923
          -723.859960
          446.469346
          -1510.178484
          -2067.309438
          -832.959180
          -84.011033
          -1308.146165
          360.671967
          -3392.009946
          1253.129171
          -4275.873275
          -1467.959579
          2802.093442
          -306.489058
          -3041.676941
          -5975.433121
          -3072.928393
          1673.826857
          -3056.264716
          -4017.791880
          -469.959742
          -92.250841
          -1294.264128
          -5661.150743
          2105.404067
          130.373386
          -5589.841169
          -792.152899
          191.048258
          -1911.280824
          3386.171660
          -1232.192351
          532.625947
          -1411.997699
          854.905303
          -737.042196
          -4066.457065
          -1974.880916
          -4303.678004
          -5091.487701
          -2721.957485
          -1988.545407
          -775.832947
          -182.501900
          -250.284140
          -549.871614
          -2161.980193
          -1935.683070
          -4729.230279
          1173.836990
          285.957898
          -307.140288
          3386.566490
          -813.973174
          150.781979
          -1411.188465
          -4792.522695
          -2418.937769
          -2719.844352
          -2062.066799
          401.293224
          -1540.974565
          -634.156830
          3421.895886
          -333.605093
          -15000.000000
          -1745.266873
          -3866.900166
          -4325.277736
          -525.767361
          -15000.000000
          -5228.372793
          -831.813612
          -4459.761376
          -16.604759
          -77.696845
          -2618.667926
          -1889.821523
          -1392.342410
          -1148.246533
          -353.497840
          -5378.466079
          50.577674
          -4360.614128
          -6479.437752
          -517.970395
          -1111.387474
          303.125531
          2474.981237
          -4181.584364
          -110.050005
          -5056.560136
          -3126.665241
          1.510234
          849.070428
          -15000.000000
          -2282.395178
          -4310.521123
          -2587.435694
          -89.397806
          -15000.000000
          2128.017372
          -286.315791
          -17.243199
          3970.496738
          -1451.454772
          -279.558007
          -4952.742899
          -1635.135378
          10.271744
          -5286.707225
          613.654556
          3424.129515
          1229.766841
          -2537.344386
          266.396824
          -1003.821604
          2572.486603
          -1438.092455
          -5415.226593
          1869.708177
          2144.565040
          -534.477599
          -1941.356858
          2066.780371
          55.521615
          -229.791669
          -4888.055185
          18.170526
          -38.727016
          -260.557624
          -3401.256842
          -2733.801389
          1905.401861
          -333.237710
          -810.872027
          -13953.937405
          -15000.000000
          801.203831
          -1827.245146
          101.053556
          -3121.132010
          -15000.000000
          -553.804810
          -1268.001283
          -1577.053162
          -2145.942761
          -4204.755568
          -1173.658421
          470.758504
          -2451.946654
          -2571.968538
          824.934909
          -5502.442427
          2631.761122
          -526.957258
          -1014.887802
          711.170489
          -10812.107214
          -11684.158541
          -4437.815418
          -1205.007220
          -4848.673904
          -225.716605
          -4922.871707
          -4647.651100
          3833.446452
          -15000.000000
          276.948502
          -6027.387975
          159.828584
          1590.152741
          -15000.000000
          -15000.000000
          1713.622823
          409.155999
          -4188.799280
          -3369.832013
          -4756.875691
          -3810.607344
          5338.166299
          -1562.497051
          -2578.654321
          1379.823099
          -15000.000000
          -1390.327017
          -1689.555688
          1580.965253
          -1270.119954
          4003.464228
          -7915.067864
          1718.741730
          -420.226129
          -5131.390367
          -4341.943457
          748.612391
          -3172.954765
          -15000.000000
          -171.642372
          872.772324
          -13089.952174
          -5885.204325
          987.535569
          -15000.000000
          -1976.789641
          -1699.730132
          -3461.657156
          802.043553
          -239.020890
          -15000.000000
          -3446.689960
          -4571.262610
          -2941.577001
          -2130.464260
          -995.962193
          -3094.376189
          -626.784664
          -5276.881257
          -574.861747
          1330.115571
          -578.911679
          -6084.913240
          -811.883034
          -1419.258363
          -2618.870794
          2252.305065
          -3052.102928
          305.660771
          -7021.110728
          -4526.193734
          1.084961
          -1046.194986
          -4319.461751
          -2777.287770
          -326.741572
          -1792.606347
          4375.842372
          -2154.925236
          2087.977237
          -15000.000000
          1054.916353
          1739.784120
          -726.888731
          -352.095964
          -2220.852010
          -3111.095059
          1664.721697
          -2595.010335