<?xml version="1.0"?>
<VTKFile type="PolyData" version="0.1" byte_order="LittleEndian">
  <PolyData>
    <Piece NumberOfPoints="396" NumberOfVerts="396" NumberOfLines="0" NumberOfStrips="0" NumberOfPolys="0">
      <Points>
        <DataArray type="Float64" NumberOfComponents="3" format="ascii">
          0.584855 -0.150529 1.836349
          -0.596664 0.178415 1.836862
          -0.618245 0.358660 1.836490
          1.370880 3.895374 -0.500000
          -0.262480 -1.309321 0.455451
          0.992768 0.426136 1.831402
          1.052002 4.000000 -0.500000
          -0.646687 -4.000000 -0.414514
          -0.731116 0.327212 1.831534
          2.751214 -0.921884 -0.242614
          -0.405713 0.016069 1.836691
          -0.759332 -0.662808 1.834823
          0.700829 3.515614 -0.475290
          -0.334950 -0.059875 1.836002
          -0.427137 -0.905702 1.837082
          0.743296 3.687305 -0.463230
          -0.808588 0.645347 1.836376
          2.274006 -0.872120 -0.480059
          -0.466465 -3.684065 -0.402527
          -0.603233 0.259649 1.836656
          -1.131864 1.030955 -0.500000
          -0.240577 -3.706978 -0.413839
          -0.577064 1.068512 0.876457
          2.285723 -0.859885 -0.481052
          -0.302095 -1.191498 0.489599
          0.701262 3.534437 -0.466317
          -0.545331 1.243410 0.871936
          -0.052558 -0.560121 1.836387
          -1.799497 3.818036 -0.500000
          -0.454468 1.011110 1.831094
          -0.233545 -1.261637 0.497334
          -1.058185 0.749055 1.835964
          -0.814350 -0.672825 1.835364
          -0.252242 -1.272955 0.385282
          -1.790559 3.833614 -0.500000
          1.199871 -3.994435 -0.442072
          2.556150 -0.882891 -0.286325
          -0.869212 0.738926 1.831493
          -0.705199 -0.725153 1.820604
          -0.451274 1.071103 0.018289
          -0.887493 -3.889655 -0.411460
          -0.591187 -3.917872 -0.469868
          -3.105685 -0.840069 -0.477156
          -0.245541 -0.940323 1.833345
          1.323658 -4.000000 -0.488305
          2.618082 -0.933137 -0.214104
          -0.359457 1.231286 0.061375
          -0.166843 -3.705929 -0.432434
          -0.635657 -3.701604 -0.422347
          0.766712 0.279221 1.831626
          -1.792372 3.804000 -0.500000
          -3.089548 -0.887785 -0.476700
          -0.566739 1.057493 0.846295
          -0.457242 1.185906 0.143276
          -0.468952 1.097777 1.799598
          0.865188 0.004066 1.834448
          -0.706366 -3.954901 -0.449492
          -1.108963 1.049503 -0.500000
          -0.403861 1.048908 1.827476
          -0.705990 1.185613 0.857583
          -3.159745 -0.851654 -0.476910
          0.313219 0.030646 1.833505
          0.916811 2.431219 -0.487563
          2.303475 -0.891885 -0.481719
          -0.603662 -0.310081 1.835602
          -1.112988 0.731639 1.835847
          2.316492 -0.893468 -0.480034
          -0.639687 1.273971 0.947126
          -0.792224 -0.727420 1.834611
          -0.216903 -3.691720 -0.433027
          -0.692183 0.149587 1.836565
          0.785360 3.508989 -0.500000
          3.897650 -3.491366 0.227474
          0.322367 0.164994 1.827023
          2.374010 -0.957920 -0.471933
          2.300180 -0.892538 -0.476726
          -3.171452 -0.862722 -0.477109
          2.188982 0.233596 -0.467544
          -0.775575 -0.431957 1.831039
          -0.490633 0.950119 1.835129
          1.009402 0.424683 1.835612
          -0.322789 -0.065798 1.836673
          -1.747669 3.821289 -0.500000
          -0.496204 0.083987 1.837057
          -0.492197 1.266379 0.955075
          -0.589869 -0.680150 1.836875
          0.773186 -3.983715 -0.475410
          1.124491 2.625840 -0.500000
          -0.348721 1.135037 0.042677
          -1.796395 3.826779 -0.500000
          1.066350 2.517655 -0.459843
          1.324741 3.983878 -0.500000
          0.857071 2.506578 -0.480314
          0.728657 -3.976685 -0.489321
          -0.306175 -0.100622 1.834892
          -0.363031 -3.888312 -0.446456
          1.112933 0.288058 1.826266
          -0.472974 -3.975377 -0.448956
          -0.352642 1.247511 0.906686
          0.982053 0.458051 1.831508
          0.158775 -0.475278 1.835750
          -0.856048 -3.872905 -0.415102
          1.229453 2.352702 0.074757
          0.888069 3.628846 -0.455876
          2.604296 -0.834751 -0.274934
          2.522523 -0.993041 -0.291308
          -1.133509 1.034767 -0.500000
          2.194348 0.262054 -0.468529
          -0.254796 -0.934733 1.827763
          -0.607444 -3.967501 -0.442968
          -1.116259 1.043065 -0.500000
          -0.796538 -3.976683 -0.399986
          -0.463200 0.986605 1.836439
          -1.745979 3.805542 -0.500000
          -2.153959 -0.341774 -0.490159
          1.001722 0.486577 1.834667
          -0.401167 -0.331532 1.840372
          0.088766 -0.475258 1.831441
          -0.795433 0.349345 1.836515
          -0.231268 -0.417088 1.836625
          -0.817534 0.689569 1.836565
          -0.707036 0.285985 1.836502
          -0.453501 0.968373 1.831114
          -0.438239 0.929849 1.835039
          -0.503924 0.068783 1.835971
          0.276778 0.140872 1.829148
          -0.855260 -3.929641 -0.443811
          -0.410352 1.149554 0.171148
          -0.363921 1.128571 0.190189
          -0.199410 -3.633377 -0.421996
          -1.072203 0.791450 1.830604
          0.101908 -0.484960 1.830839
          -3.161269 -0.924430 -0.476454
          -1.832201 3.829444 -0.500000
          -0.110959 -1.232534 -0.488189
          -0.261411 -1.240883 0.363146
          -1.130944 1.035177 -0.500000
          -0.470906 -0.241130 1.831151
          -0.307361 -0.170229 1.836315
          -0.556798 1.007229 1.831371
          -0.310134 -0.902925 1.837683
          -1.126963 1.037311 -0.500000
          -0.539275 -3.810055 -0.442160
          -0.241024 -1.244379 0.337335
          3.952106 -3.604023 0.273213
          -0.483422 -0.879837 1.831603
          -0.879200 -3.865551 -0.434389
          0.158324 -0.477931 1.836232
          1.176245 0.317246 1.835973
          5.540727 -2.064779 -0.500000
          0.841464 2.462703 -0.486368
          2.744645 -0.911196 -0.253712
          -0.391695 1.078881 0.091176
          -0.875242 -3.858282 -0.437345
          0.588841 -0.157299 1.836379
          1.349311 3.851854 -0.500000
          1.153462 0.246049 1.835564
          -0.287062 -1.320935 -0.485749
          0.817931 3.494992 -0.469053
          0.273825 0.176102 1.818277
          -0.308248 -1.235749 0.364057
          -0.432568 -3.975676 -0.453596
          -1.833760 3.791718 -0.500000
          0.843072 3.777431 -0.481014
          1.187017 -3.905739 -0.483559
          -0.667982 -0.850356 1.830193
          -0.454224 -0.831898 1.831494
          0.913739 2.606926 -0.437533
          -1.113716 0.737722 1.829072
          2.436450 -0.853192 -0.306757
          -0.634666 1.074171 0.855427
          1.016397 2.626026 -0.468136
          1.265950 -3.993799 -0.489970
          -0.158181 -1.347679 -0.464114
          -0.533121 3.444335 0.038156
          -1.143880 1.052879 -0.500000
          0.896052 2.458978 -0.490108
          -1.771719 3.837999 -0.500000
          0.791462 -3.954378 -0.487265
          2.139330 0.236937 -0.497222
          4.013869 -3.476865 0.438561
          -0.376329 -0.665524 1.826986
          -0.772304 0.633189 1.836586
          -0.240021 -1.200534 -0.427920
          -0.803829 0.554827 1.836705
          0.945391 2.520475 -0.450113
          -0.000148 -1.769986 -0.466258
          -0.297146 -0.855659 1.835127
          -1.036040 0.870456 1.836380
          -0.269734 -1.230232 0.338097
          1.163349 -3.997949 -0.429597
          4.249473 2.891542 -0.492838
          0.747735 3.780618 -0.461715
          -1.109051 0.785322 1.836140
          -0.437088 1.066956 -0.019171
          0.987515 2.415144 -0.475102
          -0.320950 -1.233147 -0.493060
          1.115843 2.527674 -0.492270
          0.921446 -4.000000 -0.490270
          0.377066 -0.114458 1.834972
          -0.435421 1.264176 0.885249
          -0.595685 -0.375344 1.831368
          1.348360 3.997808 -0.500000
          -0.829591 -3.943936 -0.427107
          0.000001 1.769742 -0.466336
          -1.750167 3.838370 -0.500000
          0.246736 0.095647 1.833068
          -0.240924 -1.372814 -0.463669
          1.117071 2.593300 -0.489259
          0.942468 2.513810 -0.472054
          3.560503 3.728046 -0.289291
          0.292350 0.139070 1.825706
          -0.252229 -1.156211 -0.430455
          -0.737938 -0.819114 1.836667
          -0.332844 -0.746923 1.825165
          -0.241687 -3.643619 -0.419350
          -3.144534 1.375008 0.115300
          -0.553589 -0.326081 1.836099
          -0.780191 -3.945442 -0.360575
          -0.295960 -1.200910 0.490005
          0.497420 -0.033558 1.831523
          -0.171930 -1.211841 -0.425045
          0.683736 3.658680 -0.481970
          -3.121762 -0.838084 -0.477141
          -0.435817 1.098477 0.165672
          1.299963 -3.974076 -0.500000
          -0.784281 0.634008 1.836602
          -1.135163 1.034853 -0.500000
          -0.175002 -1.210015 -0.500000
          0.093625 -0.478358 1.831039
          0.753722 3.738265 -0.490821
          0.398293 -0.117285 1.836354
          0.086440 -0.439186 1.831075
          -0.188092 -3.641753 -0.413843
          1.095994 3.767454 -0.500000
          1.091503 0.187856 1.835729
          -0.237588 -3.733862 -0.433315
          -0.535987 0.020600 1.836732
          -0.209951 -1.295431 -0.488304
          0.848626 3.513503 -0.444038
          -1.047860 0.774119 1.836899
          -3.165192 -0.924594 -0.476814
          -0.446077 -0.132032 1.831167
          0.752094 3.745970 -0.449389
          -0.692330 -3.949184 -0.426954
          -0.428465 -0.900484 1.837722
          -3.145170 1.382446 0.096376
          1.161677 3.957964 -0.500000
          0.831346 3.673427 -0.500000
          1.365157 3.960626 -0.500000
          -0.496052 -3.713672 -0.403428
          -0.045154 -1.200457 -0.437139
          -0.706049 -0.836306 1.815392
          1.132736 -4.000000 -0.500000
          1.295748 3.994526 -0.500000
          0.891849 0.306523 1.831544
          2.291682 -0.891912 -0.475261
          1.070664 3.958586 -0.500000
          2.687968 -0.985630 -0.246245
          -0.592649 -0.364696 1.834980
          0.033512 -0.496975 1.811728
          1.338189 3.902341 -0.500000
          -0.470014 -0.706077 1.836848
          0.765209 -0.051529 1.830867
          -0.367637 0.983718 1.831052
          0.001625 -0.574230 1.837443
          0.817006 0.062881 1.831585
          -0.336024 -0.544869 1.829323
          -0.798917 -0.714191 1.831039
          -1.084249 0.761490 1.836806
          1.352235 -3.975798 -0.488620
          0.769273 0.151644 1.831193
          0.535998 -0.009790 1.837491
          0.758776 -3.997437 -0.471131
          0.606281 -0.143049 1.836336
          -0.680550 0.192242 1.836610
          2.741656 -0.943131 -0.247334
          1.098493 3.805912 -0.500000
          -0.473099 -0.363960 1.836705
          -0.208831 -1.234569 0.356244
          1.027737 3.836178 -0.500000
          0.719695 0.186892 1.833840
          -0.409028 1.036151 1.833492
          1.153873 0.284575 1.828495
          2.588343 -0.854775 -0.257064
          0.945782 0.297629 1.839060
          -0.078874 -0.530221 1.836480
          -0.389799 -0.409475 1.837071
          -3.189571 1.413303 0.164758
          0.791547 -3.992662 -0.500000
          -2.155355 -0.338796 -0.489084
          -3.157228 -0.888692 -0.476957
          2.295702 -0.882720 -0.479975
          -0.135033 -1.294864 -0.474929
          -0.329216 1.105885 0.090356
          -0.539215 1.222078 0.815043
          0.799730 0.195990 1.831578
          -0.287768 -0.098361 1.831815
          1.247501 3.813948 -0.500000
          -0.321518 -0.423141 1.836933
          -0.569775 -0.914308 1.823401
          -0.290052 -1.232230 0.359512
          -0.436371 -3.700740 -0.445819
          -0.874415 0.641456 1.836768
          -0.463670 1.182303 0.876748
          1.047374 3.996182 -0.500000
          -0.624096 1.207307 0.976336
          -1.126634 1.031979 -0.500000
          1.040220 2.442458 -0.487575
          -0.444040 -3.877235 -0.427050
          1.050651 0.314058 1.836935
          0.927905 -3.985366 -0.467032
          -0.429026 1.199582 0.054622
          1.204624 -3.988228 -0.480822
          -0.386739 1.018970 0.105018
          0.662084 0.101790 1.831296
          2.685125 -0.930184 -0.240179
          0.776662 -3.971046 -0.467130
          -3.176474 1.390449 0.130681
          0.907573 2.450280 -0.429395
          -2.151369 -0.352555 -0.485960
          -2.155298 -0.342981 -0.487043
          2.441331 -0.832053 -0.305013
          -0.061631 -1.277807 -0.481827
          -2.156020 -0.350763 -0.487483
          -0.629182 1.262679 0.948261
          0.974095 0.159681 1.835638
          0.350720 0.127431 1.831586
          0.890317 -3.976011 -0.469664
          -0.451718 0.915855 1.831039
          2.773146 -0.910945 -0.258304
          0.955490 3.596328 -0.480866
          -0.382874 -3.819709 -0.436688
          -2.149907 -0.348658 -0.488114
          -0.617323 -0.766191 1.834082
          0.738134 -3.999775 -0.462937
          1.280352 -3.964577 -0.433678
          -0.374065 -3.824101 -0.410461
          -0.661073 1.195482 1.082743
          -0.237034 -1.146782 -0.438850
          0.443029 -0.086519 1.831525
          -0.430710 1.087615 -0.003713
          -0.374963 0.004188 1.837204
          -2.155337 -0.356826 -0.485559
          0.879414 -3.988119 -0.488781
          -0.789837 -0.641843 1.824413
          -0.458835 1.098358 1.799672
          0.987283 0.421932 1.831366
          2.732738 -0.951847 -0.235624
          0.238708 0.138170 1.831272
          0.834489 3.734939 -0.449525
          -3.130320 -0.852171 -0.476671
          -0.609562 1.236859 0.857570
          0.294935 0.003715 1.831491
          -2.137622 -0.344417 -0.487213
          0.787659 0.126099 1.836487
          0.715734 -0.012272 1.836502
          1.092428 -3.961506 -0.478894
          0.551454 -0.031457 1.837636
          0.909567 2.635306 -0.480213
          -0.128927 -0.535150 1.831569
          0.060698 -0.424436 1.828858
          -0.741339 0.292452 1.836424
          -1.785798 3.807841 -0.500000
          -0.435391 0.019454 1.836240
          -0.737866 0.581354 1.836635
          -1.119100 1.043923 -0.500000
          0.779238 -3.997128 -0.477990
          -0.407943 1.181837 0.139304
          -3.103074 -0.891495 -0.476752
          -0.304777 -1.259118 0.344933
          -0.720217 0.189728 1.836646
          1.118403 2.543212 -0.451328
          -0.445490 1.083189 0.959116
          -0.270580 -0.598304 1.836760
          0.991293 2.455227 -0.406300
          -0.363000 -0.502047 1.834439
          -2.152370 -0.342510 -0.489725
          1.315133 -3.996839 -0.475858
          1.244030 -3.922028 -0.478724
          1.096982 3.972644 -0.500000
          1.101744 -3.992052 -0.488995
          -0.489137 1.225063 0.989768
          -3.140506 -0.930793 -0.477268
          -0.273323 -0.896613 1.837581
          0.811964 3.540794 -0.478477
          -0.841502 0.699772 1.836653
          0.076969 -0.410353 1.837876
          1.127289 3.992665 -0.500000
          -0.636148 -0.577197 1.836113
          -1.048786 0.651360 1.831518
          -0.733857 0.400063 1.836658
          -0.346172 -0.371747 1.831665
          -0.325073 -0.769648 1.824935
          1.361188 3.874411 -0.500000
          -0.165201 -3.698135 -0.418376
        </DataArray>
      </Points>
      <PointData Scalars="density">
        <DataArray type="Float64" Name="density" format="ascii">
          818.352614
          958.516672
          839.041056
          917.894857
          925.257667
          958.594645
          787.049028
          994.531178
          946.744614
          875.273112
          972.229126
          930.980574
          903.343833
          945.060279
          1049.504779
          1119.069087
          984.748825
          791.057572
          878.640779
          940.025145
          921.911312
          1009.510459
          869.875121
          795.109243
          848.645782
          939.665498
          1112.564131
          962.506098
          1001.410294
          1022.061772
          847.034971
          989.230815
          809.263834
          1001.838299
          1000.531962
          1113.438665
          978.581240
          1019.568931
          1080.746888
          975.979736
          825.478955
          1099.143378
          944.405420
          726.598363
          979.824001
          975.015105
          913.911840
          841.990807
          633.217746
          799.450386
          998.430490
          967.056489
          784.788640
          961.638670
          863.424162
          729.930361
          1092.104954
          917.960663
          971.750324
          755.328358
          970.003909
          1006.771686
          1151.484482
          819.579116
          756.903426
          871.538785
          826.263560
          961.462078
          907.983379
          953.083030
          869.369532
          961.983495
          500.000000
          868.395935
          782.837293
          817.937857
          979.156771
          500.000000
          528.152775
          946.067320
          942.085441
          951.348964
          978.627129
          938.075460
          1015.712130
          1114.516120
          1043.629672
          882.996647
          1048.556026
          1001.017473
          1195.771741
          981.052385
          1107.981951
          952.922747
          915.792542
          987.987901
          919.806545
          833.036075
          641.187497
          844.535685
          902.357820
          889.284351
          500.000000
          1136.572315
          904.972735
          781.132993
          925.753049
          500.000000
          751.106431
          1029.463038
          924.582403
          966.797615
          1015.260592
          975.654506
          834.631916
          740.641202
          1103.143958
          1022.868598
          831.007558
          925.498423
          960.644089
          955.534204
          1007.215186
          943.661564
          947.626991
          870.703902
          930.770387
          1026.033884
          947.406979
          817.921168
          931.187021
          1003.499025
          956.280078
          968.208751
          951.733456
          999.973304
          925.920465
          1075.942577
          952.456861
          878.366455
          958.119456
          925.509006
          1071.512926
          960.080957
          500.000000
          1088.781897
          847.496946
          912.080057
          808.929555
          500.000000
          1010.888672
          900.363845
          1100.758212
          818.282536
          811.183128
          890.632625
          774.866954
          777.441900
          920.489233
          793.710145
          984.635104
          819.917884
          958.202471
          1056.399667
          1097.667539
          968.882881
          1170.658539
          1147.037528
          905.113633
          817.298720
          815.084358
          1144.068918
          1113.487345
          920.150427
          500.000000
          919.253171
          1170.174139
          995.640070
          1046.559458
          500.000000
          500.000000
          1071.783837
          912.054747
          956.453955
          943.539423
          1316.558643
          500.000000
          983.447957
          775.795783
          958.978153
          1070.348502
          500.000000
          937.708224
          884.019989
          856.120025
          1182.651795
          774.674102
          1047.286741
          1107.750870
          855.054248
          864.434487
          840.850597
          899.258237
          964.153730
          500.000000
          980.835029
          876.908137
          812.186924
          990.566157
          1328.970860
          500.000000
          877.208671
          858.322889
          920.102591
          1084.977778
          900.730567
          500.000000
          922.560312
          960.944609
          865.895308
          1081.672950
          1003.169492
          1023.715361
          962.872375
          1005.226147
          1062.036953
          944.392157
          923.599001
          1027.822935
          1010.328185
          1046.227422
          872.375515
          983.670255
          826.747782
          860.618648
          781.799402
          1007.941088
          934.760335
          1021.277625
          969.116141
          1003.002315
          953.854160
          1081.510873
          1018.943215
          1099.179197
          1037.906964
          500.000000
          1117.351823
          1210.951855
          893.103138
          908.448456
          708.836094
          980.114679
          1164.235016
          998.397256
          1059.507134
          813.356368
          967.774379
          913.601845
          815.561675
          1059.298950
          980.087520
          1130.239902
          828.289567
          907.195416
          955.853783
          913.634751
          1014.923855
          907.381898
          949.729532
          908.872681
          954.489362
          1084.889545
          1001.430621
          801.804082
          949.742864
          913.876550
          961.685779
          1059.960964
          929.874043
          961.581109
          854.154055
          972.318463
          812.430985
          953.863289
          1126.066602
          996.327572
          1086.997194
          500.000000
          1062.028800
          833.963927
          986.769069
          803.687220
          961.484544
          1038.517314
          1005.359166
          976.087928
          880.750465
          953.565873
          1019.136661
          896.307134
          987.431104
          998.310725
          1066.525629
          1017.805213
          805.471974
          1028.668044
          925.793246
          1177.535952
          1070.526971
          1067.690345
          1117.254634
          998.068059
          1177.858412
          940.501913
          963.669102
          997.196907
          1040.342729
          500.000000
          1105.411477
          834.900622
          834.951178
          815.983324
          809.528024
          834.631153
          993.731595
          940.018039
          967.452928
          1114.676228
          921.412466
          862.150092
          913.314760
          1116.809135
          835.175935
          1149.496278
          974.148233
          1020.239181
          1101.888954
          586.023815
          862.650738
          991.284719
          945.789968
          965.551219
          834.488904
          1116.066895
          883.320397
          882.974484
          916.803326
          894.110994
          800.180920
          1130.674850
          986.304948
          1052.031276
          955.386809
          833.223496
          982.580154
          972.500863
          1135.505887
          1064.052345
          993.545244
          968.113908
          990.706906
          931.336400
          1002.300931
          973.123303
          887.976877
          925.242852
          1043.912891
          1047.479132
          981.693598
          965.080989
          882.060879
          1035.614595
          807.509575
          973.248736
          1133.440915
          1046.705135
          834.878538
          1010.328131
          1096.886757
          957.228609
          1137.949331
          1036.725578
          961.130172
          907.958480
          1078.278177
          1005.929539
          950.745757
          1046.596230
          960.837228
          953.981488
          930.891898
          1061.494468
          1079.248223
          895.163485
          834.057032
        </DataArray>
        <DataArray type="Float64" Name="pressure" format="ascii">
          -5449.421573
          -1244.499826
          -4828.768326
          -2463.154280
          -2242.269979
          -1242.160660
          -6388.529175
          -164.064665
          -1597.661589
          -3741.806648
          -833.126206
          -2070.582783
          -2899.685021
          -1648.191622
          1485.143379
          3572.072610
          -457.535240
          -6268.272842
          -3640.776642
          -1799.245653
          -2342.660632
          285.313778
          -3903.746364
          -6146.722698
          -4540.626545
          -1810.035057
          3376.923939
          -1124.817067
          42.308808
          661.853160
          -4588.950866
          -323.075557
          -5722.084970
          55.148980
          15.958873
          3403.159949
          -642.562811
          587.067936
          2422.406643
          -720.607922
          -5235.631350
          2974.301334
          -1667.837410
          -8202.049106
          -605.279971
          -749.546850
          -2582.644790
          -4740.275783
          -11003.467628
          -6016.488420
          -47.085315
          -988.305335
          -6456.340800
          -1150.839892
          -4097.275127
          -8102.089166
          2763.148610
          -2461.180106
          -847.490266
          -7340.149259
          -899.882724
          203.150575
          4544.534466
          -5412.626508
          -7292.897228
          -3853.836439
          -5212.093206
          -1156.137655
          -2760.498643
          -1407.509094
          -3918.914050
          -1140.495137
          -15000.000000
          -3948.121952
          -6514.881210
          -5461.864283
          -625.296862
          -15000.000000
          -14155.416747
          -1617.980409
          -1737.436759
          -1459.531071
          -641.186139
          -1857.736198
          471.363892
          3435.483588
          1308.890150
          -3510.100578
          1456.680770
          30.524184
          5873.152223
          -568.428454
          3239.458519
          -1412.317602
          -2526.223726
          -360.362959
          -2405.803638
          -5008.917740
          -10764.375097
          -4663.929450
          -2929.265393
          -3321.469481
          -15000.000000
          4097.169460
          -2850.817941
          -6566.010211
          -2227.408516
          -15000.000000
          -7466.807071
          883.891142
          -2262.527917
          -996.071548
          457.817771
          -730.364822
          -4961.042511
          -7780.763945
          3094.318727
          686.057954
          -5069.773249
          -2235.047308
          -1180.677319
          -1333.973895
          216.455573
          -1690.153078
          -1571.190282
          -3878.882952
          -2076.888399
          781.016521
          -1577.790622
          -5462.364965
          -2064.389365
          104.970737
          -1311.597662
          -953.737468
          -1447.996315
          -0.800868
          -2222.386046
          2278.277309
          -1426.294159
          -3649.006339
          -1256.416332
          -2234.729824
          2145.387784
          -1197.571276
          -15000.000000
          2663.456923
          -4575.091621
          -2637.598304
          -5732.113346
          -15000.000000
          326.660150
          -2989.084636
          3022.746371
          -5451.523913
          -5664.506164
          -3281.021240
          -6753.991391
          -6676.742995
          -2385.323013
          -6188.695662
          -460.946870
          -5402.463466
          -1253.925877
          1691.989999
          2930.026169
          -933.513584
          5119.756184
          4411.125842
          -2846.591017
          -5481.038406
          -5547.469273
          4322.067530
          3404.620361
          -2395.487184
          -15000.000000
          -2422.404873
          5105.224167
          -130.797907
          1396.783737
          -15000.000000
          -15000.000000
          2153.515122
          -2638.357582
          -1306.381357
          -1693.817312
          9496.759300
          -15000.000000
          -496.561285
          -6726.126517
          -1230.655398
          2110.455053
          -15000.000000
          -1868.753287
          -3479.400343
          -4316.399249
          5479.553858
          -6759.776931
          1418.602237
          3232.526090
          -4348.372556
          -4066.965387
          -4774.482075
          -3022.252903
          -1075.388089
          -15000.000000
          -574.949136
          -3692.755904
          -5634.392289
          -283.015287
          9869.125808
          -15000.000000
          -3683.739870
          -4250.313325
          -2396.922268
          2549.333342
          -2978.082979
          -15000.000000
          -2323.190653
          -1171.661731
          -4023.140763
          2450.188513
          95.084755
          711.460844
          -1113.828753
          156.784398
          1861.108590
          -1668.235286
          -2292.029976
          834.688049
          309.845543
          1386.822664
          -3828.734554
          -489.892348
          -5197.566544
          -4181.440551
          -6546.017930
          238.232648
          -1957.189962
          638.328742
          -926.515780
          90.069439
          -1384.375212
          2445.326198
          568.296463
          2975.375912
          1137.208918
          -15000.000000
          3520.554692
          6328.555656
          -3206.905860
          -2746.546317
          -8734.917168
          -596.559630
          4927.050487
          -48.082306