<?xml version="1.0"?>
<VTKFile type="PolyData" version="0.1" byte_order="LittleEndian" header_type="UInt32" compressor="vtkZLibDataCompressor">
  <PolyData>
    <Piece NumberOfPoints="686" NumberOfVerts="686" NumberOfLines="0" NumberOfStrips="0" NumberOfPolys="0">
      <PointData>
        <DataArray type="Float64" Name="density" format="ascii" RangeMin="500" RangeMax="1017.6316726550726">
          1000.0000000000027 999.9999999999976 1000.0000000000006 1000.0024724787777 1000.0000000000005 832.1380433939114
          1000.0000000000033 1000.0000000000005 999.9999999999994 999.5008766836313 999.9814834331133 999.9999999999987
          1012.4881685684285 1000.000367199962 999.9999999999997 1000.0000000000908 999.9999999999995 999.4976563807891
          999.9999999999939 1000.0160537450657 999.999795747386 1000.000000000003 999.997127908051 1014.2491920920386
          1000.0000000000007 999.9999999999992 999.9999999999989 999.5163038975087 1000.0000000000022 999.992678648942
          1000.0000000000011 999.9999999999965 999.9175133039913 999.9999999999958 1000.0013755102835 1000.0000000000006
          1000.0000000000019 1000.0000000000055 1000.0000000000005 1000.0000000000016 1017.6316726550726 1000.0002162595488
          999.9999999999977 1000.0000000000011 1000.0000000000014 1000.0000000000001 999.9999999999973 999.9453384940231
          999.9999999999975 1000.0000000000009 1000.0201554511268 617.8813178009802 1000.0000000000063 619.2389839920734
          999.9999999999998 999.9999999999997 999.9999999999999 1000.0000000000003 999.9993797134235 1000.0000000000019
          832.1524330734292 999.9999999999997 1000.000000000004 999.9999999999991 999.9999999999987 999.9999999999801
          619.2389839920108 1000.0000000000098 999.9999999999982 999.9999999999994 1000.0000000000018 1000
          999.9999999999981 999.9999999999785 1000.0000000000061 1000.0000000000039 1000.000000000007 999.999999999999
          1000.000028996035 1000.0000000000052 500 999.999999999994 1000.0000000000036 999.9999999999994
          999.9999999999981 999.9999999999962 999.9999999999989 999.459009728352 831.0531477153789 1000.0000000000001
          999.474735353623 1000.9946302820164 999.9999999999985 500 1000.0000000000019 500
          1000.0000000000022 999.998902772665 1000.0000000000076 1000.0935207033236 999.9999999999989 831.4429061346118
          1016.8702445360906 1000.000000000001 999.9999999999998 999.9999999999999 831.0286252369526 999.9924731641805
          999.9999999999944 999.9999999999922 1000.000000000001 1000.0000000000015 999.9999999999945 999.9999999999991
          1000.0000000000431 999.9999999999983 999.9999999999995 1000 999.9993921092126 831.3196012299759
          1000.0000000000008 999.9999999999998 999.9999999999983 999.9976284109481 999.9998600809793 831.2392571459739
          1000.0000000000033 999.9986198777095 999.9994099776371 1000.000000000006 832.2101367282772 999.9988891282816
          1000.0000000000013 999.9999999999991 831.3277018911444 999.9999999999998 1000.0000000000013 1000.0000000000017
          1000.0000000000014 1000.0000000000027 999.947674606585 1000.0000000000001 999.9999999999972 831.5054824741931
          999.477549747788 999.9999999999992 999.9999999999982 1000.0000000000006 1000.0000000000052 831.4429061346118
          1000.0000000000006 831.088071139338 1000.0000000000061 999.9999999999995 999.9999999999936 999.9999999999968
          999.9999999999999 999.9998333664392 1000.0000000000014 999.9999999999999 999.9999999999999 831.2012434345717
          999.9999999999999 831.0286252369526 999.9999999999994 999.999999999999 999.999999999999 831.2802834610899
          999.9999999999932 999.9927808730903 500 999.9999999999966 999.9999999999983 1000.0261916464613
          1000.0000000000003 831.3196012299759 1000.0000000000006 831.3277018911446 999.9999992665105 1000.0000000000045
          999.9999999999986 831.2392571459739 1000.000000000001 999.9802604079051 1000.0000000000015 1000.0126954078943
          1000.0000000000011 999.9992579256439 999.9999999999997 999.9999099295337 1000.0000000000025 831.5054824741931
          1000.0162089548938 831.0289300085558 999.9999999999937 999.9989327840391 999.999999999999 999.8834524562194
          1000.000000000003 831.088071139338 999.9999999999957 999.9999999999977 1000.0000000000005 1000.0000000000001
          999.9999999999884 999.9975065084698 1000.0000000000026 832.1833005798902 831.0531477153789 1000.0000000000011
          999.999999999999 999.9999999999956 1000.0000000000001 1000.0000000000014 1000.0000000000009 999.9999999999978
          999.9999999999995 831.2012434345717 999.9750122550298 1000.0000000000048 999.9999999999712 1000.0042929893531
          999.4679179569116 831.2802834610899 999.9999999999991 1000.0000000000041 997.9294727113764 999.9999999999959
          999.9999999999997 1000.5838332896938 1000.0000000000024 999.9999999999993 999.9999999999985 999.9999999999995
          1000.0000000000103 999.9999999999994 999.9999999999983 1000.0000000000008 1000.000077550889 999.999999918913
          1000.000000000003 831.0289300085558 999.9999999999981 999.9999999999984 1000.0006183029785 1000.0151767575549
          831.5057781584507 999.9999999999981 999.9933841275885 999.9999999999992 1000.0000000000024 1000.0000000000011
          831.5057781584507 999.9999999999995 1000.000000000001 999.9322996254361 1000.0000000000003 1000.000000000002
          999.9999999999976 1000.0001562498636 1000.0000000000003 999.9999999999998 1000.0000000000002 1000.0000000000008
          999.9999999999966 1000.0000453566164 999.9999999999995 1000.0000000000019 999.999999999996 1000.0000000000011
          1000.0000000000003 1000.0000000000009 999.9999999999995 1000.0000223361118 1000.0292508567787 1000.0011150926947
          999.9723202115161 999.9985727986648 1000.0126257197902 999.9998605898196 831.1935591101699 1000.0401190886837
          1000.9923061035641 1000.0000000000031 1000.0027554723126 1000.0880405811405 1000.0000000000049 999.9999999999986
          831.1935591101698 999.9999999999987 999.9999999999993 1000.0000000000003 1000.0000000000031 1000.0000000000076
          999.9999999999998 1000.0000000000049 1000.0000000000016 999.9926483033745 999.9999999999991 1000.0000000000008
          1000.0000000000033 1000 1000.0000000000006 999.8888984060158 999.9999999999985 999.9999999999999
          1000.0000000000013 999.9999999999991 999.9992052238057 999.8896943481093 1000.0000000000064 500
          1000.0000000000009 1000.0000000000017 1000.0000372842151 1001.6856477879165 500 999.9768251802866
          999.999999999997 1000 999.9998780175928 1000.014405035802 1000.000242435869 999.9999999682141
          999.9999999999981 999.4517535198762 1000.001327183491 1000.0000000000023 1000.0004406979618 1000.0099590800589
          1000.0000000000011 999.9999998182051 1000.0000000000016 1000.0000000000002 1000.0000000000396 1000.0000000000006
          999.9959640924709 1001.0056324262383 1000 1000.0000014357628 999.9999999999976 999.9986433352716
          999.9999999999967 1000.0000000000008 999.9999999999977 999.9976690518611 999.9999999999997 1000.0000000000005
          999.9999999999999 999.9999999999984 1000.0000000000005 1000.0000000000006 1000.0000000000005 1000.0000000000031
          999.9999999999998 1000.0000000000002 999.9999999999991 1015.1051492870904 999.9999999999987 999.9999999999964
          1000.0000000000014 999.9999999999998 1000.0000000000007 999.9999999999999 999.9993889127041 500
          999.999999999999 999.7420641891888 1000.0000000000026 999.9999999999987 1000.0357178434111 998.9443994471548
          999.9999999999999 999.9141300414043 999.9999999999965 1000.0000280561258 999.9999999905572 1000.0000000000014
          999.9928832194086 999.9890547919937 1000.0000000000008 999.9999987876828 999.9999999681785 999.9999999999767
          999.9999245588673 999.9653689420929 1000.9209651133885 1000.0000000934652 1000.0000000000032 999.9999986179315
          1000.0000598358499 1000.0000000000005 1000.0000000000017 831.3073262724781 1000.0050248263339 999.9940256635322
          999.9944916770794 999.9999999999986 1000.0000000000006 831.21298094958 999.9999999999997 999.9999999999997
          1000.0098799456714 1000.0000000000002 999.9999999999987 1000.0000000000048 1008.0006255841148 999.9999999999982
          999.9999999999998 1000.0002022511113 1000.0000000000006 1000.0000000000016 1000.000000000001 500
          1000.0000000000031 831.1892068855288 1000.0000000000048 1000.2995188239471 1000.000000000002 999.9999613987188
          1006.4957364951819 1001.041193080587 999.9999191329265 999.9999999999982 1000.0000000000007 999.999774297402
          999.9531581771216 831.3585373822557 997.9294726761196 1001.0540899925185 999.973275711443 999.975222430549
          1000.0050074234284 999.9999999999995 1000.6378021782396 831.3585373822558 1000.000000582177 999.9999991511282
          1000.0000006899007 999.9999999999987 999.9999999999995 1000.0000000000016 1000.0000000000003 999.9999999999975
          831.4501172278717 999.9999999999964 999.9999999999983 1000 1000.0172911871477 999.999999999975
          999.9999999999745 999.4010089141321 999.4801483263777 999.9975018813825 1000.0000000000005 1000.0000000000005
          1000.0000000000006 1000.0000000000038 1000.0000000000057 1000 1000.0000000000003 1000.0000000000002
          831.4159965264753 999.4185965392202 1001.951675389238 999.9999999999998 999.9999999999998 999.9999999999983
          831.5033618222207 1000.000000000005 1000.000000000001 1000.0030332358361 999.7485112173318 999.9988626174371
          1000.000000000001 1000.0000000000014 999.9999996486177 999.999999999999 999.9999999999991 1000.0000000000117
          999.9999999999993 999.4907222120365 1000.0000000366304 999.9999628454534 999.9999999999978 1000.0000000000008
          831.1554977963865 1000.0000000000014 999.999999991741 999.9992339645365 1000 999.9999999999998
          831.0815317944111 999.9999999999983 831.4501172278717 999.9999999999995 1000 1000.0000000000019
          999.9999999999984 1000.2171865818467 999.9999999999989 1000.0000000000015 999.9999999999999 999.9999999999959
          831.1123572545022 1000.0110809235103 831.21298094958 1000.0107847246703 999.999999999997 999.9999999999999
          831.0311031317748 831.1892068855288 999.9999999999994 1000.0000000000042 999.9999999999982 999.9539207440058
          999.9999999999923 999.999999999997 831.1123572545022 999.9999999219248 831.1647247676668 999.999999999999
          1000.0000000000002 999.999999970081 831.0311031317747 1000.0000000000006 997.9294726742888 999.999999910384
          1000.0000000000338 1000.0000000270978 999.9992656195795 999.9999999999977 999.9999184830166 999.9999999999959
          831.3685422977447 999.9999999999994 831.1554977963864 999.9999999999956 1000.0012184458466 1000.0000000000001
          1000.0000000000018 999.7535063325676 831.0815317944113 1000.0000000000039 999.9999999999995 999.9999999999998
          999.9999999999991 831.3073262724782 1000.0000000000001 999.9999999999955 999.9999999999999 999.999999999996
          999.9618277759191 1000.0000000000073 999.9999999999981 999.9999999999984 1000.7031856779071 999.9999999999976
          999.9999999999986 1000.0000000000014 831.4159965264753 999.9929854671083 999.9824914587612 1000.0000000000022
          999.989620481111 1000.047143007018 831.5033618222205 1000.0000000000123 1000.0000220355598 1000.0003011071527
          1000.0000000000025 999.9708569198525 999.9999999999993 999.9999999999978 1000.0000000000013 831.1647247676668
          999.9999999999965 998.2283503987792 1000.000000000004 1000.0000000000036 999.9801471825489 1000.0000000000015
          1000.0000000000015 1000.0000000000019 831.3685422977447 999.999999999999 999.9999999999983 1000.000000000039
          999.9999999999995 999.9999999999959 617.8813178009804 999.999999999996 619.2389840865112 999.9999999999987
          999.9999999999994 1000.0000000000092 1000.0000000000015 999.9999999999991 999.997636715212 1015.0807555074028
          1000.0000000000009 999.9999999999983 1000.000000000001 999.9999999999994 1000 619.2389838975737
          999.9999999999999 999.999999999996 999.9999999999981 831.3323122643162 1000.0000000000014 999.9999999999998
          1000.0000000000002 999.9999999999992 998.2597688866763 831.4808335199396 1000.0000000000019 999.999985022676
          1000 618.0382389438681 1000.0000000000001 999.9999999999986 1000.0000000000002 1000.0000000000001
          999.9999999999998 999.9999999999977 1000.0325593917382 831.4808335199396 1000.0000000000018 999.9999999999985
          1000.0027445749864 998.2515913109636 619.9740428545293 1000.0000000000043 618.0382389184201 1000.151844832756
          1000.0000000000005 999.4962058052378 1000.0000000000017 1000.0000000000002 1000.000000000008 1000.6232636072077
          1000.0000000000024 999.9999999999992 999.9999999999986 1000.000000000001 999.9951605939664 999.737537347822
          999.9999999999975 999.9999999999973 999.9524421902346 999.999999999999 998.1700134499202 1000.000000000011
          999.9966259178426 999.9999999999849 1000.0000000000013 999.4176708755027 1000.0000000000022 999.9999999999998
          1000.0000000000034 999.9999999999981 999.9999999999997 999.9999999999987 1000.0000000000008 1000.0000000000024
          1000.0000000000011 1000.0000000000032 1000.0000000000049 999.9999999999892 1000.000000000001 999.9605593539386
          999.9999999999962 831.3323122643162 999.9881471266705 999.9999999999862 1000.0000003842239 1000.0000000000005
          999.9605810040487 999.9999999999885 1000.0000000000049 1000.0000000000313 999.4018753362271 999.9182930835703
          1000.0000000000005 999.9999999999976
        </DataArray>
        <DataArray type="Float64" Name="pressure" format="ascii" RangeMin="-60000" RangeMax="2115.800718608716">
          3.2741809263825417e-10 -2.864908310584724e-10 6.821210263296962e-11 0.29669745332284947 5.4569682106375694e-11 -20143.43479273063
          3.956301952712238e-10 5.4569682106375694e-11 -6.821210263296962e-11 -59.89479796424348 -2.221988026399231 -1.5006662579253316e-10
          1498.5802282114173 0.04406399544677697 -4.092726157978177e-11 1.0900294000748545e-8 -5.4569682106375694e-11 -60.281234305311955
          -7.366907084360719e-10 1.926449407887958 -0.024510313683094864 3.54702933691442e-10 -0.3446510338835651 1709.90305104463
          8.185452315956354e-11 -9.549694368615746e-11 -1.3642420526593924e-10 -58.04353229895696 2.5920599000528455e-10 -0.8785621269544208
          1.3642420526593924e-10 -4.2291503632441163e-10 -9.898403521042383 -5.047695594839752e-10 0.16506123402450612 6.821210263296962e-11
          2.319211489520967e-10 6.548361852765083e-10 5.4569682106375694e-11 1.9099388737231493e-10 2115.800718608716 0.025951145853468915
          -2.7284841053187847e-10 1.3642420526593924e-10 1.6370904631912708e-10 1.3642420526593924e-11 -3.2741809263825417e-10 -6.559380717230852
          -3.001332515850663e-10 1.0913936421275139e-10 2.4186541352173663 -45854.24186388237 7.503331289626658e-10 -45691.321920951195
          -2.7284841053187847e-11 -4.092726157978177e-11 -1.3642420526593924e-11 4.092726157978177e-11 -0.07443438917562162 2.319211489520967e-10
          -20141.7080311885 -4.092726157978177e-11 4.774847184307873e-10 -1.0913936421275139e-10 -1.5006662579253316e-10 -2.3874235921539366e-9
          -45691.3219209587 1.1732481652870774e-9 -2.1827872842550278e-10 -6.821210263296962e-11 2.1827872842550278e-10 0
          -2.319211489520967e-10 -2.5784174795262516e-9 7.366907084360719e-10 4.638422979041934e-10 8.458300726488233e-10 -1.227817847393453e-10
          0.003479524198155559 6.275513442233205e-10 -60000 -7.23048287909478e-10 4.3655745685100555e-10 -6.821210263296962e-11
          -2.319211489520967e-10 -4.501998773775995e-10 -1.3642420526593924e-10 -64.91883259775477 -20273.622274154528 1.3642420526593924e-11
          -63.03175756523615 119.35563384196485 -1.77351466845721e-10 -60000 2.319211489520967e-10 -60000
          2.5920599000528455e-10 -0.13166728019768925 9.140421752817929e-10 11.222484398836059 -1.3642420526593924e-10 -20226.851263846584
          2024.4293443308698 1.227817847393453e-10 -2.7284841053187847e-11 -1.3642420526593924e-11 -20276.564971565684 -0.9032202983371462
          -6.684786058031023e-10 -9.413270163349807e-10 1.227817847393453e-10 1.77351466845721e-10 -6.548361852765083e-10 -1.0913936421275139e-10
          5.170477379579097e-9 -2.0463630789890885e-10 -5.4569682106375694e-11 0 -0.07294689448372083 -20241.647852402893
          9.549694368615746e-11 -2.7284841053187847e-11 -2.0463630789890885e-10 -0.2845906862285119 -0.016790282488727826 -20251.28914248314
          3.956301952712238e-10 -0.16561467485644243 -0.07080268354457075 7.23048287909478e-10 -20134.78359260673 -0.13330460621091333
          1.5006662579253316e-10 -1.0913936421275139e-10 -20240.675773062667 -2.7284841053187847e-11 1.5006662579253316e-10 2.0463630789890885e-10
          1.6370904631912708e-10 3.2741809263825417e-10 -6.27904720980041 1.3642420526593924e-11 -3.410605131648481e-10 -20219.34210309683
          -62.69403026544296 -9.549694368615746e-11 -2.1827872842550278e-10 6.821210263296962e-11 6.275513442233205e-10 -20226.851263846584
          6.821210263296962e-11 -20269.431463279438 7.366907084360719e-10 -5.4569682106375694e-11 -7.639755494892597e-10 -3.8198777474462986e-10
          -1.3642420526593924e-11 -0.01999602729028993 1.6370904631912708e-10 -1.3642420526593924e-11 -1.3642420526593924e-11 -20255.8507878514
          -1.3642420526593924e-11 -20276.564971565684 -6.821210263296962e-11 -1.227817847393453e-10 -1.227817847393453e-10 -20246.365984669214
          -8.185452315956354e-10 -0.8662952291660986 -60000 -4.092726157978177e-10 -2.0463630789890885e-10 3.142997575350819
          4.092726157978177e-11 -20241.647852402893 6.821210263296962e-11 -20240.675773062652 -0.00008801874173514079 5.456968210637569e-10
          -1.6370904631912708e-10 -20251.28914248314 1.227817847393453e-10 -2.368751051385516 1.77351466845721e-10 1.5234489473141366
          1.3642420526593924e-10 -0.08904892273676523 -4.092726157978177e-11 -0.01080845595424762 3.001332515850663e-10 -20219.34210309683
          1.9450745872609332 -20276.528398973307 -7.503331289626658e-10 -0.12806591530988953 -1.227817847393453e-10 -13.985705253671767
          3.54702933691442e-10 -20269.431463279438 -5.184119800105691e-10 -2.7284841053187847e-10 5.4569682106375694e-11 1.3642420526593924e-11
          -1.3915268937125802e-9 -0.2992189836277248 3.1377567211166024e-10 -20138.003930413175 -20273.622274154528 1.3642420526593924e-10
          -1.227817847393453e-10 -5.32054400537163e-10 1.3642420526593924e-11 1.6370904631912708e-10 1.0913936421275139e-10 -2.5920599000528455e-10
          -5.4569682106375694e-11 -20255.8507878514 -2.998529396422782 5.729816621169448e-10 -3.4515323932282627e-9 0.5151587223690512
          -63.849845170607296 -20246.365984669214 -1.0913936421275139e-10 4.911271389573812e-10 -248.46327463482794 -4.911271389573812e-10
          -4.092726157978177e-11 70.05999476325087 2.864908310584724e-10 -8.185452315956354e-11 -1.77351466845721e-10 -5.4569682106375694e-11
          1.241460267920047e-9 -6.821210263296962e-11 -2.0463630789890885e-10 9.549694368615746e-11 0.009306106685471605 -0.00000973044279817259
          3.54702933691442e-10 -20276.528398973307 -2.319211489520967e-10 -1.9099388737231493e-10 0.07419635742280661 1.8212109065825643
          -20219.30662098592 -2.319211489520967e-10 -0.7939046893852719 -9.549694368615746e-11 2.864908310584724e-10 1.3642420526593924e-10
          -20219.30662098592 -5.4569682106375694e-11 1.227817847393453e-10 -8.124044947662696 4.092726157978177e-11 2.455635694786906e-10
          -2.864908310584724e-10 0.018749983632915246 4.092726157978177e-11 -2.7284841053187847e-11 2.7284841053187847e-11 9.549694368615746e-11
          -4.092726157978177e-10 0.005442793967631587 -5.4569682106375694e-11 2.319211489520967e-10 -4.774847184307873e-10 1.3642420526593924e-10
          4.092726157978177e-11 1.0913936421275139e-10 -5.4569682106375694e-11 0.0026803334139913204 3.510102813447702 0.13381112336446677
          -3.3215746180621863 -0.17126416022620106 1.5150863748249321 -0.016729221647437953 -20256.772906779617 4.814290642043488
          119.0767324276976 3.6834535421803594e-10 0.33065667751543515 10.564869736858782 5.866240826435387e-10 -1.6370904631912708e-10
          -20256.772906779628 -1.5006662579253316e-10 -8.185452315956354e-11 4.092726157978177e-11 3.6834535421803594e-10 9.140421752817929e-10
          -2.7284841053187847e-11 5.866240826435387e-10 1.9099388737231493e-10 -0.8822035950606733 -1.0913936421275139e-10 9.549694368615746e-11
          3.956301952712238e-10 0 6.821210263296962e-11 -13.332191278109349 -1.77351466845721e-10 -1.3642420526593924e-11
          1.5006662579253316e-10 -1.0913936421275139e-10 -0.09537314331737434 -13.236678226885488 7.639755494892597e-10 -60000
          1.0913936421275139e-10 2.0463630789890885e-10 0.0044741058081854135 202.27773454998442 -60000 -2.780978365608462
          -3.54702933691442e-10 0 -0.014637888866673165 1.7286042962450665 0.029092304284858983 -0.0000038143116398714483
          -2.319211489520967e-10 -65.78957761485526 0.15926201891488745 2.7284841053187847e-10 0.0528837554202255 1.1950896070720773
          1.3642420526593924e-10 -0.000021815390027768444 1.9099388737231493e-10 2.7284841053187847e-11 4.747562343254685e-9 6.821210263296962e-11
          -0.4843089034920922 120.67589114859857 0 0.0001722915339996689 -2.864908310584724e-10 -0.16279976740861457
          -3.956301952712238e-10 9.549694368615746e-11 -2.7284841053187847e-10 -0.27971377667199704 -4.092726157978177e-11 5.4569682106375694e-11
          -1.3642420526593924e-11 -1.9099388737231493e-10 5.4569682106375694e-11 6.821210263296962e-11 5.4569682106375694e-11 3.6834535421803594e-10
          -2.7284841053187847e-11 2.7284841053187847e-11 -1.0913936421275139e-10 1812.6179144508478 -1.5006662579253316e-10 -4.3655745685100555e-10
          1.6370904631912708e-10 -2.7284841053187847e-11 8.185452315956354e-11 -1.3642420526593924e-11 -0.07333047550218907 -60000
          -1.227817847393453e-10 -30.952297297344558 3.1377567211166024e-10 -1.5006662579253316e-10 4.286141209336165 -126.67206634142985
          -1.3642420526593924e-11 -10.304395031485 -4.2291503632441163e-10 0.0033667350908217486 -0.0000011331394489388913 1.6370904631912708e-10
          -0.8540136709734725 -1.3134249607583115 9.549694368615746e-11 -0.00014547806586051593 -0.000003818581717496272 -2.7966962079517543e-9
          -0.009052935924955818 -4.155726948847587 110.51581360662567 0.000011215829545108136 3.8198777474462986e-10 -0.0001658482187849586
          0.00718030199095665 5.4569682106375694e-11 2.0463630789890885e-10 -20243.120847302627 0.6029791600622048 -0.7169203761395693
          -0.6609987504725723 -1.6370904631912708e-10 6.821210263296962e-11 -20254.4422860504 -4.092726157978177e-11 -4.092726157978177e-11
          1.185593480568059 2.7284841053187847e-11 -1.5006662579253316e-10 5.729816621169448e-10 960.075070093776 -2.1827872842550278e-10
          -2.7284841053187847e-11 0.024270133358186285 6.821210263296962e-11 1.9099388737231493e-10 1.227817847393453e-10 -60000
          3.6834535421803594e-10 -20257.295173736537 5.729816621169448e-10 35.942258873651554 2.455635694786906e-10 -0.004632153741113143
          779.4883794218231 124.94316967044597 -0.009704048820822209 -2.1827872842550278e-10 8.185452315956354e-11 -0.027084311755061208
          -5.621018745405308 -20236.975514129317 -248.46327886564268 126.49079910221644 -3.206914626844082 -2.973308334117064
          0.6008908114108635 -5.4569682106375694e-11 76.53626138874642 -20236.975514129303 0.00006986123935348587 -0.00010186461167904781
          0.00008278808763861889 -1.5006662579253316e-10 -5.4569682106375694e-11 1.9099388737231493e-10 4.092726157978177e-11 -3.001332515850663e-10
          -20225.985932655392 -4.3655745685100555e-10 -2.0463630789890885e-10 0 2.074942457729776 -3.001332515850663e-9
          -3.055902197957039e-9 -71.87893030414216 -62.3822008346724 -0.29977423409945914 5.4569682106375694e-11 5.4569682106375694e-11
          6.821210263296962e-11 4.501998773775995e-10 6.821210263296962e-10 0 4.092726157978177e-11 2.7284841053187847e-11
          -20230.080416822966 -69.76841529357898 234.2010467085538 -2.7284841053187847e-11 -2.7284841053187847e-11 -2.0463630789890885e-10
          -20219.59658133352 6.002665031701326e-10 1.227817847393453e-10 0.36398830033704144 -30.178653920179386 -0.13648590754655743
          1.227817847393453e-10 1.6370904631912708e-10 -0.00004216587058181176 -1.227817847393453e-10 -1.0913936421275139e-10 1.4051693142391741e-9
          -8.185452315956354e-11 -61.11333455561635 0.0000043956424633506685 -0.004458545590750873 -2.5920599000528455e-10 9.549694368615746e-11
          -20261.34026443362 1.6370904631912708e-10 -9.910809239954688e-7 -0.09192425561650452 0 -2.7284841053187847e-11
          -20270.216184670662 -2.0463630789890885e-10 -20225.985932655392 -5.4569682106375694e-11 0 2.319211489520967e-10
          -1.9099388737231493e-10 26.062389821604484 -1.3642420526593924e-10 1.77351466845721e-10 -1.3642420526593924e-11 -4.911271389573812e-10
          -20266.51712945974 1.3297108212418607 -20254.4422860504 1.2941669604379058 -3.54702933691442e-10 -1.3642420526593924e-11
          -20276.267624187025 -20257.295173736537 -6.821210263296962e-11 5.047695594839752e-10 -2.1827872842550278e-10 -5.52951071930238
          -9.276845958083868e-10 -3.54702933691442e-10 -20266.51712945974 -0.000009369027793582063 -20260.23302787998 -1.227817847393453e-10
          2.7284841053187847e-11 -0.000003590275809983723 -20276.26762418704 6.821210263296962e-11 -248.46327908534022 -0.000010753924470918719
          4.051798896398395e-9 0.0000032517391446162947 -0.08812565045445808 -2.7284841053187847e-10 -0.009782038009689131 -4.911271389573812e-10
          -20235.77492427063 -6.821210263296962e-11 -20261.340264433635 -5.32054400537163e-10 0.14621350158904534 1.3642420526593924e-11
          2.1827872842550278e-10 -29.579240091893553 -20270.216184670648 4.638422979041934e-10 -5.4569682106375694e-11 -2.7284841053187847e-11
          -1.0913936421275139e-10 -20243.120847302613 1.3642420526593924e-11 -5.456968210637569e-10 -1.3642420526593924e-11 -4.774847184307873e-10
          -4.580666889705753 8.731149137020111e-10 -2.319211489520967e-10 -1.9099388737231493e-10 84.38228134884866 -2.864908310584724e-10
          -1.6370904631912708e-10 1.6370904631912708e-10 -20230.080416822966 -0.8417439470076715 -2.101024948660779 2.5920599000528455e-10
          -1.2455422666744198 5.65716084216092 -20219.596581333535 1.4733814168721437e-9 0.002644267178766313 0.03613285832670954
          3.001332515850663e-10 -3.497169617699001 -8.185452315956354e-11 -2.5920599000528455e-10 1.5006662579253316e-10 -20260.23302787998
          -4.2291503632441163e-10 -212.59795214649785 4.774847184307873e-10 4.3655745685100555e-10 -2.382338094134866 1.77351466845721e-10
          1.77351466845721e-10 2.319211489520967e-10 -20235.77492427063 -1.227817847393453e-10 -2.0463630789890885e-10 4.679350240621716e-9
          -5.4569682106375694e-11 -4.911271389573812e-10 -45854.24186388236 -4.774847184307873e-10 -45691.32190961865 -1.5006662579253316e-10
          -6.821210263296962e-11 1.1050360626541078e-9 1.77351466845721e-10 -1.0913936421275139e-10 -0.28359417455703806 1809.690660888341
          1.0913936421275139e-10 -2.0463630789890885e-10 1.227817847393453e-10 -6.821210263296962e-11 0 -45691.32193229116
          -1.3642420526593924e-11 -4.774847184307873e-10 -2.319211489520967e-10 -20240.122528282052 1.6370904631912708e-10 -2.7284841053187847e-11
          2.7284841053187847e-11 -9.549694368615746e-11 -208.82773359884595 -20222.299977607254 2.319211489520967e-10 -0.0017972788782572025
          0 -45835.411326735826 1.3642420526593924e-11 -1.6370904631912708e-10 2.7284841053187847e-11 1.3642420526593924e-11
          -2.7284841053187847e-11 -2.7284841053187847e-10 3.9071270085878496 -20222.299977607254 2.1827872842550278e-10 -1.77351466845721e-10
          0.32934899837073317 -209.80904268436916 -45603.11485745648 5.184119800105691e-10 -45835.41132978958 18.221379930714647
          5.4569682106375694e-11 -60.45530337146829 2.0463630789890885e-10 2.7284841053187847e-11 9.549694368615746e-10 74.79163286492621
          2.864908310584724e-10 -9.549694368615746e-11 -1.6370904631912708e-10 1.227817847393453e-10 -0.5807287240349979 -31.495518261358484
          -3.001332515850663e-10 -3.2741809263825417e-10 -5.706937171848949 -1.227817847393453e-10 -219.59838600957028 1.3233147910796106e-9
          -0.40488985888714524 -1.8144419300369918e-9 1.5006662579253316e-10 -69.87949493967335 2.5920599000528455e-10 -2.7284841053187847e-11
          4.092726157978177e-10 -2.319211489520967e-10 -4.092726157978177e-11 -1.5006662579253316e-10 9.549694368615746e-11 2.864908310584724e-10
          1.3642420526593924e-10 3.8198777474462986e-10 5.866240826435387e-10 -1.2960299500264227e-9 1.227817847393453e-10 -4.732877527367236
          -4.501998773775995e-10 -20240.122528282052 -1.42234479954368 -1.6507328837178648e-9 0.00004610686573869316 5.4569682106375694e-11
          -4.730279514160429 -1.3778844731859863e-9 5.866240826435387e-10 3.751665644813329e-9 -71.77495965274375 -9.80482997155832
          5.4569682106375694e-11 -2.864908310584724e-10
        </DataArray>
        <DataArray type="Float64" Name="velocity" NumberOfComponents="3" format="ascii" RangeMin="4.737001738972569e-69" RangeMax="4.141594854508156">
          2.3658189277267747e-14 -1.0456316234018414e-14 0 -2.1580941018124192e-14 -1.0022217592592655e-14 0