<?xml version="1.0"?>
<VTKFile type="PolyData" version="0.1" byte_order="LittleEndian">
  <PolyData>
    <Piece NumberOfPoints="396" NumberOfVerts="396" NumberOfLines="0" NumberOfStrips="0" NumberOfPolys="0">
      <Points>
        <DataArray type="Float64" NumberOfComponents="3" format="ascii">
          -0.663074 0.004729 53.809200
          -0.637517 0.080406 53.306784
          -0.427271 0.176831 54.250788
          -0.427269 0.176831 53.358155
          -0.637517 0.080406 54.302163
          -0.663074 0.004729 53.799743
          -0.637518 -0.497689 53.884878
          -1.035766 -0.246091 53.558382
          -0.548671 -0.436846 53.884636
          -0.548670 -0.436847 53.724311
          -1.035765 -0.246092 54.050565
          -0.637515 -0.497690 53.724066
          -0.427270 0.446317 53.981302
          -0.548671 0.080163 53.367627
          -0.926965 0.223542 54.028013
          -0.926965 0.223542 53.580930
          -0.548671 0.080162 54.241319
          -0.427270 0.446316 53.627640
          -0.427270 -0.446317 53.981302
          -0.548671 -0.080163 53.367627
          -0.926965 -0.223542 54.028013
          -0.926965 -0.223542 53.580930
          -0.548671 -0.080162 54.241319
          -0.427270 -0.446316 53.627640
          -0.637518 0.497689 53.884878
          -1.035766 0.246091 53.558382
          -0.548671 0.436846 53.884636
          -0.548670 0.436847 53.724311
          -1.035765 0.246092 54.050565
          -0.637515 0.497690 53.724066
          -0.663074 -0.004729 53.809200
          -0.637517 -0.080406 53.306784
          -0.427271 -0.176831 54.250788
          -0.427269 -0.176831 53.358155
          -0.637517 -0.080406 54.302163
          -0.663074 -0.004729 53.799743
          -1.229750 0.061518 53.865991
          -1.031673 -0.290008 53.529614
          -1.134732 0.146758 53.969010
          -1.134731 0.146755 53.639935
          -1.031674 -0.290007 54.079334
          -1.229752 0.061521 53.742952
          -1.031672 -0.274859 53.514465
          -1.026629 -0.307496 53.496978
          -0.927635 -0.182098 54.320464
          -0.927635 -0.182099 53.288484
          -1.026628 -0.307495 54.111969
          -1.031674 -0.274861 54.094480
          -1.134732 0.164537 53.951231
          -0.927635 0.515990 53.622374
          -1.254054 0.152082 53.956555
          -1.254054 0.152082 53.652390
          -0.927635 0.515990 53.986572
          -1.134731 0.164538 53.657718
          -1.134732 -0.164537 53.951231
          -0.927635 -0.515990 53.622374
          -1.254054 -0.152082 53.956555
          -1.254054 -0.152082 53.652390
          -0.927635 -0.515990 53.986572
          -1.134731 -0.164538 53.657718
          -1.031672 0.274859 53.514465
          -1.026629 0.307496 53.496978
          -0.927635 0.182098 54.320464
          -0.927635 0.182099 53.288484
          -1.026628 0.307495 54.111969
          -1.031674 0.274861 54.094480
          -1.229750 -0.061518 53.865991
          -1.031673 0.290008 53.529614
          -1.134732 -0.146758 53.969010
          -1.134731 -0.146755 53.639935
          -1.031674 0.290007 54.079334
          -1.229752 -0.061521 53.742952
          -0.210997 0.319318 54.123789
          -0.634456 0.025650 53.373976
          -0.571546 -0.236438 54.110209
          -0.571546 -0.236438 53.498734
          -0.634456 0.025651 54.234971
          -0.210998 0.319318 53.485154
          -0.634456 -0.430497 53.830124
          -0.392608 -0.350929 53.453544
          -0.596606 -0.471737 53.932095
          -0.596605 -0.471737 53.676851
          -0.392608 -0.350930 54.155403
          -0.634456 -0.430497 53.778823
          -0.571546 0.305737 53.568034
          -0.596605 0.127622 53.332737
          -0.886397 -0.086935 53.717536
          -0.886397 -0.086935 53.891406
          -0.596606 0.127621 54.276210
          -0.571546 0.305737 54.040909
          -0.571546 -0.305737 53.568034
          -0.596605 -0.127622 53.332737
          -0.886397 0.086935 53.717536
          -0.886397 0.086935 53.891406
          -0.596606 -0.127621 54.276210
          -0.571546 -0.305737 54.040909
          -0.634456 0.430497 53.830124
          -0.392608 0.350929 53.453544
          -0.596606 0.471737 53.932095
          -0.596605 0.471737 53.676851
          -0.392608 0.350930 54.155403
          -0.634456 0.430497 53.778823
          -0.210997 -0.319318 54.123789
          -0.634456 -0.025650 53.373976
          -0.571546 0.236438 54.110209
          -0.571546 0.236438 53.498734
          -0.634456 -0.025651 54.234971
          -0.210998 -0.319318 53.485154
          -0.866432 0.284367 54.088839
          -0.837173 0.160912 53.374275
          -0.777810 -0.275987 54.093960
          -0.777810 -0.275987 53.514984
          -0.837172 0.160913 54.234671
          -0.866432 0.284367 53.520104
          -0.837173 -0.430198 53.965386
          -0.747425 -0.429546 53.374928
          -0.884149 -0.505918 53.932448
          -0.884149 -0.505918 53.676498
          -0.747425 -0.429547 54.234020
          -0.837173 -0.430198 53.643561
          -0.777810 0.289488 53.528485
          -0.884149 0.127976 53.298555
          -0.531110 -0.067313 53.737158
          -0.531110 -0.067313 53.871785
          -0.884148 0.127975 54.310392
          -0.777810 0.289488 54.080458
          -0.777810 -0.289488 53.528485
          -0.884149 -0.127976 53.298555
          -0.531110 0.067313 53.737158
          -0.531110 0.067313 53.871785
          -0.884148 -0.127975 54.310392
          -0.777810 -0.289488 54.080458
          -0.837173 0.430198 53.965386
          -0.747425 0.429546 53.374928
          -0.884149 0.505918 53.932448
          -0.884149 0.505918 53.676498
          -0.747425 0.429547 54.234020
          -0.837173 0.430198 53.643561
          -0.866432 -0.284367 54.088839
          -0.837173 -0.160912 53.374275
          -0.777810 0.275987 54.093960
          -0.777810 0.275987 53.514984
          -0.837172 -0.160913 54.234671
          -0.866432 -0.284367 53.520104
          -0.176472 0.397493 54.201965
          -0.079437 -0.028371 53.225312
          -0.125394 -0.154425 53.928701
          -0.125394 -0.154425 53.680244
          -0.079437 -0.028371 54.383636
          -0.176472 0.397493 53.406979
          -0.079437 -0.579162 53.776103
          -0.105615 -0.407626 53.396848
          -0.042966 -0.230836 53.842125
          -0.042966 -0.230837 53.766822
          -0.105615 -0.407626 54.212100
          -0.079437 -0.579162 53.832844
          -0.125394 0.124229 53.650048
          -0.042966 0.037652 53.573637
          -0.241615 -0.004572 53.799900
          -0.241615 -0.004572 53.809043
          -0.042965 0.037651 54.035310
          -0.125394 0.124228 53.958898
          -0.125394 -0.124229 53.650048
          -0.042966 -0.037652 53.573637
          -0.241615 0.004572 53.799900
          -0.241615 0.004572 53.809043
          -0.042965 -0.037651 54.035310
          -0.125394 -0.124228 53.958898
          -0.079437 0.579162 53.776103
          -0.105615 0.407626 53.396848
          -0.042966 0.230836 53.842125
          -0.042966 0.230837 53.766822
          -0.105615 0.407626 54.212100
          -0.079437 0.579162 53.832844
          -0.176472 -0.397493 54.201965
          -0.079437 0.028371 53.225312
          -0.125394 0.154425 53.928701
          -0.125394 0.154425 53.680244
          -0.079437 0.028371 54.383636
          -0.176472 -0.397493 53.406979
          -0.000000 0.390441 54.194913
          -0.000000 -0.033701 53.236337
          -0.000000 -0.203060 53.979645
          -0.000000 -0.203060 53.629300
          0.000000 -0.033701 54.372610
          0.000000 0.390441 53.414031
          0.000000 -0.568136 53.770773
          0.000000 -0.408656 53.395818
          -0.000000 -0.237590 53.838483
          -0.000000 -0.237590 53.770464
          -0.000000 -0.408656 54.213130
          -0.000000 -0.568136 53.838175
          0.000000 0.175173 53.601413
          0.000000 0.034010 53.566883
          0.000000 -0.040097 53.764374
          -0.000000 -0.040097 53.844569
          0.000000 0.034009 54.042063
          0.000000 0.175172 54.007532
          0.000000 -0.175173 53.601413
          0.000000 -0.034010 53.566883
          0.000000 0.040097 53.764374
          0.000000 0.040097 53.844569
          0.000000 -0.034009 54.042063
          0.000000 -0.175172 54.007532
          -0.000000 0.568136 53.770773
          -0.000000 0.408656 53.395818
          -0.000000 0.237590 53.838483
          -0.000000 0.237590 53.770464
          -0.000000 0.408656 54.213130
          -0.000000 0.568136 53.838175
          0.000000 -0.390441 54.194913
          0.000000 0.033701 53.236337
          -0.000000 0.203060 53.979645
          -0.000000 0.203060 53.629300
          0.000000 0.033701 54.372610
          0.000000 -0.390441 53.414031
          0.176472 0.397493 54.201965
          0.079437 -0.028371 53.225312
          0.125394 -0.154425 53.928701
          0.125394 -0.154425 53.680244
          0.079437 -0.028371 54.383636
          0.176472 0.397493 53.406979
          0.079437 -0.579162 53.776103
          0.105615 -0.407626 53.396848
          0.042966 -0.230836 53.842125
          0.042966 -0.230837 53.766822
          0.105615 -0.407626 54.212100
          0.079437 -0.579162 53.832844
          0.125394 0.124229 53.650048
          0.042966 0.037652 53.573637
          0.241615 -0.004572 53.799900
          0.241615 -0.004572 53.809043
          0.042965 0.037651 54.035310
          0.125394 0.124228 53.958898
          0.125394 -0.124229 53.650048
          0.042966 -0.037652 53.573637
          0.241615 0.004572 53.799900
          0.241615 0.004572 53.809043
          0.042965 -0.037651 54.035310
          0.125394 -0.124228 53.958898
          0.079437 0.579162 53.776103
          0.105615 0.407626 53.396848
          0.042966 0.230836 53.842125
          0.042966 0.230837 53.766822
          0.105615 0.407626 54.212100
          0.079437 0.579162 53.832844
          0.176472 -0.397493 54.201965
          0.079437 0.028371 53.225312
          0.125394 0.154425 53.928701
          0.125394 0.154425 53.680244
          0.079437 0.028371 54.383636
          0.176472 -0.397493 53.406979
          0.866432 0.284367 54.088839
          0.837173 0.160912 53.374275
          0.777810 -0.275987 54.093960
          0.777810 -0.275987 53.514984
          0.837172 0.160913 54.234671
          0.866432 0.284367 53.520104
          0.837173 -0.430198 53.965386
          0.747425 -0.429546 53.374928
          0.884149 -0.505918 53.932448
          0.884149 -0.505918 53.676498
          0.747425 -0.429547 54.234020
          0.837173 -0.430198 53.643561
          0.777810 0.289488 53.528485
          0.884149 0.127976 53.298555
          0.531110 -0.067313 53.737158
          0.531110 -0.067313 53.871785
          0.884148 0.127975 54.310392
          0.777810 0.289488 54.080458
          0.777810 -0.289488 53.528485
          0.884149 -0.127976 53.298555
          0.531110 0.067313 53.737158
          0.531110 0.067313 53.871785
          0.884148 -0.127975 54.310392
          0.777810 -0.289488 54.080458
          0.837173 0.430198 53.965386
          0.747425 0.429546 53.374928
          0.884149 0.505918 53.932448
          0.884149 0.505918 53.676498
          0.747425 0.429547 54.234020
          0.837173 0.430198 53.643561
          0.866432 -0.284367 54.088839
          0.837173 -0.160912 53.374275
          0.777810 0.275987 54.093960
          0.777810 0.275987 53.514984
          0.837172 -0.160913 54.234671
          0.866432 -0.284367 53.520104
          0.210997 0.319318 54.123789
          0.634456 0.025650 53.373976
          0.571546 -0.236438 54.110209
          0.571546 -0.236438 53.498734
          0.634456 0.025651 54.234971
          0.210998 0.319318 53.485154
          0.634456 -0.430497 53.830124
          0.392608 -0.350929 53.453544
          0.596606 -0.471737 53.932095
          0.596605 -0.471737 53.676851
          0.392608 -0.350930 54.155403
          0.634456 -0.430497 53.778823
          0.571546 0.305737 53.568034
          0.596605 0.127622 53.332737
          0.886397 -0.086935 53.717536
          0.886397 -0.086935 53.891406
          0.596606 0.127621 54.276210
          0.571546 0.305737 54.040909
          0.571546 -0.305737 53.568034
          0.596605 -0.127622 53.332737
          0.886397 0.086935 53.717536
          0.886397 0.086935 53.891406
          0.596606 -0.127621 54.276210
          0.571546 -0.305737 54.040909
          0.634456 0.430497 53.830124
          0.392608 0.350929 53.453544
          0.596606 0.471737 53.932095
          0.596605 0.471737 53.676851
          0.392608 0.350930 54.155403
          0.634456 0.430497 53.778823
          0.210997 -0.319318 54.123789
          0.634456 -0.025650 53.373976
          0.571546 0.236438 54.110209
          0.571546 0.236438 53.498734
          0.634456 -0.025651 54.234971
          0.210998 -0.319318 53.485154
          1.229750 0.061518 53.865991
          1.031673 -0.290008 53.529614
          1.134732 0.146758 53.969010
          1.134731 0.146755 53.639935
          1.031674 -0.290007 54.079334
          1.229752 0.061521 53.742952
          1.031672 -0.274859 53.514465
          1.026629 -0.307496 53.496978
          0.927635 -0.182098 54.320464
          0.927635 -0.182099 53.288484
          1.026628 -0.307495 54.111969
          1.031674 -0.274861 54.094480
          1.134732 0.164537 53.951231
          0.927635 0.515990 53.622374
          1.254054 0.152082 53.956555
          1.254054 0.152082 53.652390
          0.927635 0.515990 53.986572
          1.134731 0.164538 53.657718
          1.134732 -0.164537 53.951231
          0.927635 -0.515990 53.622374
          1.254054 -0.152082 53.956555
          1.254054 -0.152082 53.652390
          0.927635 -0.515990 53.986572
          1.134731 -0.164538 53.657718
          1.031672 0.274859 53.514465
          1.026629 0.307496 53.496978
          0.927635 0.182098 54.320464
          0.927635 0.182099 53.288484
          1.026628 0.307495 54.111969
          1.031674 0.274861 54.094480
          1.229750 -0.061518 53.865991
          1.031673 0.290008 53.529614
          1.134732 -0.146758 53.969010
          1.134731 -0.146755 53.639935
          1.031674 0.290007 54.079334
          1.229752 -0.061521 53.742952
          0.663074 0.004729 53.809200
          0.637517 0.080406 53.306784
          0.427271 0.176831 54.250788
          0.427269 0.176831 53.358155
          0.637517 0.080406 54.302163
          0.663074 0.004729 53.799743
          0.637518 -0.497689 53.884878
          1.035766 -0.246091 53.558382
          0.548671 -0.436846 53.884636
          0.548670 -0.436847 53.724311
          1.035765 -0.246092 54.050565
          0.637515 -0.497690 53.724066
          0.427270 0.446317 53.981302
          0.548671 0.080163 53.367627
          0.926965 0.223542 54.028013
          0.926965 0.223542 53.580930
          0.548671 0.080162 54.241319
          0.427270 0.446316 53.627640
          0.427270 -0.446317 53.981302
          0.548671 -0.080163 53.367627
          0.926965 -0.223542 54.028013
          0.926965 -0.223542 53.580930
          0.548671 -0.080162 54.241319
          0.427270 -0.446316 53.627640
          0.637518 0.497689 53.884878
          1.035766 0.246091 53.558382
          0.548671 0.436846 53.884636
          0.548670 0.436847 53.724311
          1.035765 0.246092 54.050565
          0.637515 0.497690 53.724066
          0.663074 -0.004729 53.809200
          0.637517 -0.080406 53.306784
          0.427271 -0.176831 54.250788
          0.427269 -0.176831 53.358155
          0.637517 -0.080406 54.302163
          0.663074 -0.004729 53.799743
        </DataArray>
      </Points>
      <PointData Scalars="density">
        <DataArray type="Float64" Name="density" format="ascii">
          766.009964
          822.201208
          509.700472
          509.699833
          822.201047
          766.009788
          822.202829
          682.367717
          789.036170
          789.034715
          682.367424
          822.199426
          509.700942
          789.035758
          728.444091
          728.449004
          789.035127
          509.699363
          509.700942
          789.035758
          728.444091
          728.449004
          789.035127
          509.699363
          822.202829
          682.367717
          789.036170
          789.034715
          682.367424
          822.199426
          766.009964
          822.201208
          509.700472
          509.699833
          822.201047
          766.009788
          862.380425
          684.331822
          712.923551
          712.926213
          684.330599
          862.376749
          684.333461
          608.755217
          500.000000
          500.000000
          608.755030
          684.328961
          712.924637
          500.000000
          578.909765
          578.910656
          500.000000
          712.925126
          712.924637
          500.000000
          578.909765
          578.910656
          500.000000
          712.925126
          684.333461
          608.755217
          500.000000
          500.000000
          608.755030
          684.328961
          862.380425
          684.331822
          712.923551
          712.926213
          684.330599
          862.376749
          500.000000
          864.698229
          639.775136
          639.777839
          864.698145
          500.000000
          864.698041
          500.000000
          742.998504
          742.997964
          500.000000
          864.698333
          639.776609
          742.998216
          637.473271
          637.470298
          742.998252
          639.776366
          639.776609
          742.998216
          637.473271
          637.470298
          742.998252
          639.776366
          864.698041
          500.000000
          742.998504
          742.997964
          500.000000
          864.698333
          500.000000
          864.698229
          639.775136
          639.777839
          864.698145
          500.000000
          764.774202
          690.061256
          740.325100
          740.327424
          690.058628
          764.778330
          690.060584
          500.000000
          559.453074
          559.452168
          500.000000
          690.059300
          740.327798
          559.453558
          615.478958
          615.478427
          559.451684
          740.324726
          740.327798
          559.453558
          615.478958
          615.478427
          559.451684
          740.324726
          690.060584
          500.000000
          559.453074
          559.452168
          500.000000
          690.059300
          764.774202
          690.061256
          740.325100
          740.327424
          690.058628
          764.778330
          500.000000
          500.000000
          1235.125272
          1235.125441
          500.000000
          500.000000
          500.000000
          500.000000
          1179.825172
          1179.824949
          500.000000
          500.000000
          1235.125007
          1179.827411
          1020.428815
          1020.428880
          1179.822710
          1235.125706
          1235.125007
          1179.827411
          1020.428815
          1020.428880
          1179.822710
          1235.125706
          500.000000
          500.000000
          1179.825172
          1179.824949
          500.000000
          500.000000
          500.000000
          500.000000
          1235.125272
          1235.125441
          500.000000
          500.000000
          611.106513
          500.000000
          1280.791877
          1280.789861
          500.000000
          611.104370
          500.000000
          500.000000
          1227.878555
          1227.878185
          500.000000
          500.000000
          1280.789446
          1227.880703
          1904.627116
          1904.628471
          1227.876037
          1280.792292
          1280.789446
          1227.880703
          1904.627116
          1904.628471
          1227.876037
          1280.792292
          500.000000
          500.000000
          1227.878555
          1227.878185
          500.000000
          500.000000
          611.106513
          500.000000
          1280.791877
          1280.789861
          500.000000
          611.104370
          500.000000
          500.000000
          1235.125272
          1235.125441
          500.000000
          500.000000
          500.000000
          500.000000
          1179.825172
          1179.824949
          500.000000
          500.000000
          1235.125007
          1179.827411
          1020.428815
          1020.428880
          1179.822710
          1235.125706
          1235.125007
          1179.827411
          1020.428815
          1020.428880
          1179.822710
          1235.125706
          500.000000
          500.000000
          1179.825172
          1179.824949
          500.000000
          500.000000
          500.000000
          500.000000
          1235.125272
          1235.125441
          500.000000
          500.000000
          764.774202
          690.061256
          740.325100
          740.327424
          690.058628
          764.778330
          690.060584
          500.000000
          559.453074
          559.452168
          500.000000
          690.059300
          740.327798
          559.453558
          615.478958
          615.478427
          559.451684
          740.324726
          740.327798
          559.453558
          615.478958
          615.478427
          559.451684
          740.324726
          690.060584
          500.000000
          559.453074
          559.452168
          500.000000
          690.059300
          764.774202
          690.061256
          740.325100
          740.327424
          690.058628
          764.778330
          500.000000
          864.698229
          639.775136
          639.777839
          864.698145
          500.000000
          864.698041
          500.000000
          742.998504
          742.997964
          500.000000
          864.698333
          639.776609
          742.998216
          637.473271
          637.470298
          742.998252
          639.776366
          639.776609
          742.998216
          637.473271
          637.470298
          742.998252
          639.776366
          864.698041
          500.000000
          742.998504
          742.997964
          500.000000
          864.698333
          500.000000
          864.698229
          639.775136
          639.777839
          864.698145
          500.000000
          862.380425
          684.331822
          712.923551
          712.926213
          684.330599
          862.376749
          684.333461
          608.755217
          500.000000
          500.000000
          608.755030
          684.328961
          712.924637
          500.000000
          578.909765
          578.910656
          500.000000
          712.925126
          712.924637
          500.000000
          578.909765
          578.910656
          500.000000
          712.925126
          684.333461
          608.755217
          500.000000
          500.000000
          608.755030
          684.328961
          862.380425
          684.331822
          712.923551
          712.926213
          684.330599
          862.376749
          766.009964
          822.201208
          509.700472
          509.699833
          822.201047
          766.009788
          822.202829
          682.367717
          789.036170
          789.034715
          682.367424
          822.199426
          509.700942
          789.035758
          728.444091
          728.449004
          789.035127
          509.699363
          509.700942
          789.035758
          728.444091
          728.449004
          789.035127
          509.699363
          822.202829
          682.367717
          789.036170
          789.034715
          682.367424
          822.199426
          766.009964
          822.201208
          509.700472
          509.699833
          822.201047
          766.009788
        </DataArray>
        <DataArray type="Float64" Name="pressure" format="ascii">
          -7019.701080
          -5333.963765
          -14708.985826
          -14709.004998
          -5333.968585
          -7019.706364
          -5333.915127
          -9528.968486
          -6328.914906
          -6328.958536
          -9528.977277
          -5334.017225
          -14708.971728
          -6328.927247
          -8146.677281
          -8146.529875
          -6328.946195
          -14709.019097
          -14708.971728
          -6328.927247
          -8146.677281
          -8146.529875
          -6328.946195
          -14709.019097
          -5333.915127
          -9528.968486
          -6328.914906
          -6328.958536
          -9528.977277
          -5334.017225
          -7019.701080
          -5333.963765
          -14708.985826
          -14709.004998
          -5333.968585
          -7019.706364
          -4128.587263
          -9470.045338
          -8612.293474
          -8612.213618
          -9470.082024
          -4128.697524
          -9469.996180
          -11737.343500
          -15000.000000
          -15000.000000
          -11737.349095
          -9470.131184
          -8612.260881
          -15000.000000
          -12632.707056
          -12632.680319
          -15000.000000
          -8612.246209
          -8612.260881
          -15000.000000
          -12632.707056
          -12632.680319
          -15000.000000
          -8612.246209
          -9469.996180
          -11737.343500
          -15000.000000
          -15000.000000
          -11737.349095
          -9470.131184
          -4128.587263
          -9470.045338
          -8612.293474
          -8612.213618
          -9470.082024
          -4128.697524
          -15000.000000
          -4059.053139
          -10806.745927
          -10806.664818
          -4059.055655
          -15000.000000
          -4059.058771
          -15000.000000
          -7710.044871
          -7710.061083
          -15000.000000
          -4059.050022
          -10806.701736
          -7710.053528
          -10875.801861
          -10875.891070
          -7710.052425
          -10806.709009
          -10806.701736
          -7710.053528
          -10875.801861
          -10875.891070
          -7710.052425
          -10806.709009
          -4059.058771
          -15000.000000
          -7710.044871
          -7710.061083
          -15000.000000
          -4059.050022
          -15000.000000
          -4059.053139
          -10806.745927
          -10806.664818
          -4059.055655
          -15000.000000
          -7056.773931
          -9298.162332
          -7790.247008
          -7790.177270
          -9298.241150
          -7056.650087
          -9298.182485
          -15000.000000
          -13216.407787
          -13216.434956
          -15000.000000
          -9298.220997
          -7790.166070
          -13216.393266
          -11535.631254
          -11535.647201
          -13216.449476
          -7790.258208
          -7790.166070
          -13216.393266
          -11535.631254
          -11535.647201
          -13216.449476
          -7790.258208
          -9298.182485
          -15000.000000
          -13216.407787
          -13216.434956
          -15000.000000
          -9298.220997
          -7056.773931
          -9298.162332
          -7790.247008
          -7790.177270
          -9298.241150
          -7056.650087
          -15000.000000
          -15000.000000
          7053.758162
          7053.763237
          -15000.000000
          -15000.000000
          -15000.000000
          -15000.000000
          5394.755154
          5394.748475
          -15000.000000
          -15000.000000
          7053.750209
          5394.822338
          612.864440
          612.866396
          5394.681291
          7053.771189
          7053.750209
          5394.822338
          612.864440
          612.866396
          5394.681291
          7053.771189
          -15000.000000
          -15000.000000
          5394.755154
          5394.748475
          -15000.000000
          -15000.000000
          -15000.000000
          -15000.000000
          7053.758162
          7053.763237
          -15000.000000
          -15000.000000
          -11666.804625
          -15000.000000
          8423.756296
          8423.695831
          -15000.000000
          -11666.868900
          -15000.000000
          -15000.000000
          6836.356644
          6836.345556
          -15000.000000
          -15000.000000
          8423.683375
          6836.421076
          27138.813489
          27138.854121
          6836.281124
          8423.768752
          8423.683375
          6836.421076
          27138.813489
          27138.854121
          6836.281124
          8423.768752
          -15000.000000
          -15000.000000
          6836.356644
          6836.345556
          -15000.000000
          -15000.000000
          -11666.804625
          -15000.000000
          8423.756296
          8423.695831
          -15000.000000
          -11666.868900
          -15000.000000
          -15000.000000
          7053.758162
          7053.763237
          -15000.000000
          -15000.000000
          -15000.000000
          -15000.000000
          5394.755154
          5394.748475
          -15000.000000
          -15000.000000
          7053.750209
          5394.822338
          612.864440
          612.866396
          5394.681291
          7053.771189
          7053.750209
          5394.822338
          612.864440
          612.866396
          5394.681291
          7053.771189
          -15000.000000
          -15000.000000
          5394.755154
          5394.748475