<?xml version="1.0"?>
<VTKFile type="PolyData" version="0.1" byte_order="LittleEndian">
  <PolyData>
    <Piece NumberOfPoints="396" NumberOfVerts="396" NumberOfLines="0" NumberOfStrips="0" NumberOfPolys="0">
      <Points>
        <DataArray type="Float64" NumberOfComponents="3" format="ascii">
          1.373336 0.341413 1.850543
          -0.793860 0.689562 1.828630
          -0.454903 0.436477 1.854778
          1.486963 3.845813 -0.500000
          0.040545 -1.637945 -0.500000
          1.102239 0.202974 1.832361
          1.493208 3.809480 -0.500000
          -0.849666 -3.745623 -0.500000
          -0.755236 0.510337 1.853255
          2.944102 -1.374116 -0.500000
          -0.898086 -0.707316 1.850228
          -0.750449 -0.292617 1.854224
          1.523415 3.796442 -0.500000
          -0.461101 0.207700 1.854671
          -0.672848 -0.902775 1.830526
          1.271515 3.492542 -0.500000
          -0.853404 0.704075 1.857623
          2.939366 -0.932843 -0.500000
          -0.634133 -3.813233 -0.500000
          -0.553338 0.457733 1.847405
          -1.280796 1.119992 -0.500000
          -0.172843 -3.854031 -0.500000
          -1.487052 1.537488 -0.498045
          3.102531 -1.212640 -0.500000
          -0.055323 -1.447544 -0.500000
          1.264222 3.373840 -0.500000
          -1.387064 1.690477 -0.497607
          -0.386299 -0.400146 1.853523
          -2.197971 3.378105 -0.500000
          -0.501771 1.926827 -0.226930
          0.314118 -1.691555 -0.500000
          -0.931471 0.776857 1.850481
          -0.703997 -0.056600 1.853398
          0.019690 -1.478107 -0.500000
          -2.204018 3.362876 -0.500000
          1.118036 -3.610667 -0.500000
          2.991714 -1.252590 -0.500000
          -0.609393 0.532466 1.846313
          -0.814141 -0.345263 1.850362
          -0.299294 1.104633 -0.500000
          -0.921607 -3.775251 -0.500000
          -0.328329 -3.784599 -0.500000
          -4.055845 -1.202277 -0.500000
          -0.353063 -0.763227 1.851386
          1.440753 -3.764950 -0.500000
          2.862535 -0.858471 -0.500000
          -0.320656 1.184753 -0.500000
          -0.312663 -3.857831 -0.500000
          -0.530341 -3.674431 -0.500000
          1.179275 0.083093 1.849936
          -2.161757 3.402992 -0.500000
          -4.043476 -1.243147 -0.500000
          -1.438373 1.719569 -0.481468
          -0.382111 1.159591 -0.500000
          -0.556065 1.933206 -0.238111
          0.646855 0.094839 1.850964
          -0.771349 -3.646319 -0.500000
          -1.276333 1.292359 -0.500000
          -0.550220 2.048654 -0.230276
          -1.343929 1.625668 -0.500000
          -4.031658 -1.200137 -0.500000
          0.481237 -0.628159 1.846861
          0.931927 2.922452 -0.500000
          2.979773 -0.875646 -0.500000
          -0.740931 -0.456127 1.855438
          -0.907859 0.786974 1.850741
          2.958994 -0.884659 -0.500000
          -1.438438 1.440400 -0.487949
          -0.811253 -0.464216 1.854571
          -0.132407 -3.814805 -0.500000
          -0.806533 0.773622 1.850894
          1.302427 3.539745 -0.500000
          4.069704 -2.707560 -0.478376
          0.538845 -0.569531 1.849546
          3.013161 -1.323819 -0.500000
          2.991632 -0.985466 -0.500000
          -4.073647 -1.225155 -0.500000
          2.349751 0.029831 -0.500000
          -0.802821 -0.947616 1.846127
          -0.475229 2.006422 -0.214621
          1.360066 0.278830 1.850470
          -0.587344 0.036207 1.855503
          -2.162073 3.366812 -0.500000
          -0.441301 0.226181 1.853254
          -1.543843 1.526474 -0.497018
          -0.487472 -0.303592 1.846757
          0.886349 -3.594334 -0.500000
          1.030173 2.909928 -0.500000
          -0.415129 1.180259 -0.500000
          -2.189112 3.365786 -0.500000
          0.812255 3.103183 -0.500000
          1.219652 3.566437 -0.500000
          1.222682 2.952377 -0.500000
          0.869081 -3.601960 -0.500000
          -0.637789 0.141571 1.846915
          -0.658350 -3.629969 -0.500000
          1.322934 0.331817 1.850759
          -0.179146 -3.722607 -0.500000
          -1.490244 1.508810 -0.473624
          1.305354 0.340141 1.851108
          -0.433045 -0.409391 1.854608
          -0.817929 -3.849574 -0.500000
          3.868861 2.226167 -0.500000
          1.000484 3.402538 -0.500000
          2.992374 -0.967531 -0.500000
          2.960371 -0.883910 -0.500000
          -1.240544 1.142272 -0.500000
          2.313776 0.011336 -0.500000
          -0.439509 -0.807268 1.850960
          -0.414404 -3.751208 -0.500000
          -1.241364 1.125846 -0.500000
          -0.720883 -3.770660 -0.500000
          -0.569808 1.946913 -0.239282
          -2.152172 3.377976 -0.500000
          -2.195849 -0.299149 -0.500000
          1.308025 0.367362 1.851205
          -0.481249 -0.245159 1.846284
          -0.387391 -0.822326 1.850130
          -0.705742 0.340690 1.847107
          -0.546946 -0.727599 1.851040
          -0.461008 0.330186 1.855279
          -0.452602 0.178754 1.853798
          -0.499065 1.960752 -0.228412
          -0.484735 1.953498 -0.236689
          -0.645816 0.174261 1.855392
          0.591132 -0.635360 1.846982
          -0.868109 -3.765934 -0.500000
          -0.405082 1.057829 -0.500000
          -0.409736 1.264342 -0.500000
          -0.151596 -3.890779 -0.500000
          -0.928572 0.736515 1.851388
          -0.365939 -0.576216 1.854228
          -4.039017 -1.275949 -0.500000
          -2.170381 3.340022 -0.500000
          0.352376 -1.592277 -0.500000
          0.386401 -1.729865 -0.500000
          -1.239085 1.144027 -0.500000
          -0.916636 -0.884321 1.846828
          -0.363873 -0.400942 1.850303
          -0.532940 2.013333 -0.231022
          -0.769229 -0.968303 1.846101
          -1.253545 1.110119 -0.500000
          -0.523625 -3.647586 -0.500000
          0.214597 -1.779638 -0.500000
          4.020677 -2.667201 -0.475207
          -0.578091 -0.531047 1.846248
          -0.931990 -3.749610 -0.500000
          -0.657039 -0.112600 1.846994
          0.763351 0.196544 1.850752
          5.260178 -2.818519 -0.500000
          1.239247 3.131655 -0.500000
          3.070772 -1.358474 -0.500000
          -0.423285 1.106679 -0.500000
          -0.918809 -3.791261 -0.500000
          0.737296 0.125775 1.851382
          1.537748 3.835239 -0.500000
          0.758068 0.112378 1.846538
          -0.012591 -1.656073 -0.500000
          0.923344 3.359312 -0.500000
          0.609840 -0.608365 1.852428
          0.092831 -1.242129 -0.500000
          -0.663367 -3.646957 -0.500000
          -2.160881 3.407805 -0.500000
          1.248549 2.940744 -0.500000
          0.986196 -3.554294 -0.500000
          -0.470738 -1.075091 1.046525
          -0.425269 -1.056000 1.053752
          0.968851 2.978192 -0.500000
          -0.895578 0.822576 1.851391
          3.082511 -1.253554 -0.500000
          -1.545483 1.509597 -0.481621
          0.980940 2.940692 -0.500000
          1.282942 -3.772960 -0.500000
          0.061783 -1.598119 -0.500000
          -2.185452 2.785869 -0.500000
          -1.266695 1.121200 -0.500000
          1.176884 2.939266 -0.500000
          -2.178360 3.375358 -0.500000
          0.938693 -3.721853 -0.500000
          2.343384 -0.067097 -0.500000
          4.059905 -2.700982 -0.476596
          -0.613259 -0.874663 1.851046
          -0.615693 0.643186 1.846949
          0.406041 -1.670316 -0.500000
          -0.538756 0.545750 1.850030
          1.194125 2.986471 -0.500000
          0.248442 -1.715470 -0.500000
          -0.768598 -0.675222 1.845614
          -0.492961 0.477298 1.847166
          -0.011409 -1.395738 -0.500000
          0.966665 -3.611859 -0.500000
          5.647418 3.710240 -0.500000
          1.510265 3.652008 -0.500000
          -0.927913 0.791089 1.850609
          -0.518510 1.099915 -0.500000
          0.783045 3.040115 -0.500000
          0.200414 -1.601036 -0.500000
          1.222025 3.112597 -0.500000
          1.289501 -3.620306 -0.500000
          0.623974 -0.651507 1.847194
          -1.408306 1.709060 -0.498218
          -0.679265 -0.942137 1.850424
          1.476151 3.765712 -0.500000
          -0.901147 -3.790878 -0.500000
          -0.298049 1.142313 -0.500000
          -2.142500 3.354987 -0.500000
          0.452837 -0.612660 1.846293
          0.087787 -1.398192 -0.500000
          1.052518 2.963231 -0.500000
          0.978856 3.484195 -0.500000
          5.113290 3.388201 -0.500000
          0.586087 -0.614937 1.849000
          0.003626 -1.415863 -0.500000
          -0.839111 -0.913022 1.846943
          -0.656903 -0.157589 1.854506
          -0.195195 -3.851948 -0.500000
          -2.997220 1.960065 -0.472278
          -0.876452 -0.529882 1.853934
          -0.479837 -3.700208 -0.500000
          0.143908 -1.693525 -0.500000
          0.475755 -0.587352 1.845913
          0.397178 -1.708659 -0.500000
          0.958186 3.326792 -0.500000
          -4.008284 -1.195617 -0.500000
          -0.512609 1.090335 -0.500000
          1.407347 -3.718821 -0.500000
          -0.731176 0.535137 1.846316
          -1.264872 1.108990 -0.500000
          0.165407 -1.404519 -0.500000
          -0.393536 -0.433962 1.854412
          0.869651 3.314399 -0.500000
          0.682462 0.130178 1.847020
          -0.829508 -0.846942 1.846421
          -0.174715 -3.792577 -0.500000
          1.267712 3.617509 -0.500000
          1.093897 0.126253 1.850926
          -0.405242 -3.826884 -0.500000
          -0.613169 -0.005193 1.850931
          0.345096 -1.607477 -0.500000
          0.927163 3.253511 -0.500000
          -0.896695 0.793947 1.850810
          -4.056896 -1.274687 -0.500000
          -0.835004 -0.457790 1.854236
          1.056983 3.070189 -0.500000
          -0.904238 -3.774139 -0.500000
          -0.795943 -0.772588 1.847195
          -2.976600 1.957387 -0.477718
          0.971724 3.288461 -0.500000
          0.791435 3.134196 -0.500000
          1.545506 3.833056 -0.500000
          -0.512154 -3.815840 -0.500000
          0.072294 -1.491313 -0.500000
          -0.769481 -1.014419 1.806370
          1.293956 -3.751970 -0.500000
          1.518855 3.782350 -0.500000
          1.212881 0.114484 1.854233
          2.989596 -0.932869 -0.500000
          1.122322 3.346686 -0.500000
          2.990113 -0.875342 -0.500000
          -0.847805 -0.422260 1.850510
          -0.765013 -0.382519 1.850365
          1.024690 3.417523 -0.500000
          -0.598990 -0.908068 1.853877
          0.852778 0.171899 1.846924
          -0.534430 2.038304 -0.229986
          -0.622347 -0.516809 1.851273
          1.103863 0.197441 1.850044
          -0.902053 -0.560494 1.854758
          -0.919968 -0.851026 1.846887
          -0.944319 0.669548 1.847003
          1.449922 -3.751462 -0.500000
          1.212817 0.058101 1.850866
          0.675740 0.012944 1.855117
          1.447507 -3.787917 -0.500000
          0.850636 0.139404 1.847078
          -0.611063 -0.010431 1.855103
          3.034633 -1.421120 -0.500000
          1.140841 3.305412 -0.500000
          -0.856317 -0.801034 1.847308
          0.317254 -1.575802 -0.500000
          1.279263 3.701433 -0.500000
          0.722458 0.106595 1.855711
          -0.587614 2.000721 -0.228518
          1.347270 0.254188 1.846153
          3.056838 -1.402106 -0.500000
          1.184378 0.082819 1.846495
          -0.512240 -0.770612 1.831617
          -0.364586 -0.378030 1.850285
          -3.015768 1.970219 -0.448875
          1.042272 -3.709893 -0.500000
          -2.195943 -0.295277 -0.500000
          -4.018154 -1.245315 -0.500000
          3.035890 -1.427415 -0.500000
          0.184621 -1.371744 -0.500000
          -0.525290 1.106174 -0.500000
          -1.317122 1.248674 -0.500000
          1.312930 0.241826 1.847249
          -0.689062 0.321924 1.849702
          1.558638 3.744267 -0.500000
          -0.512584 -0.485242 1.850822
          -0.475794 -1.072363 1.030299
          0.394657 -1.442330 -0.500000
          -0.655532 -3.638124 -0.500000
          -0.533269 0.393917 1.857104
          -1.518599 1.483420 -0.499206
          1.258410 3.612717 -0.500000
          -1.373089 1.286428 -0.500000
          -1.260145 1.106879 -0.500000
          1.114756 3.067678 -0.500000
          -0.179331 -3.799013 -0.500000
          0.623071 0.053304 1.850274
          1.357330 -3.667788 -0.500000
          -0.509037 1.078510 -0.500000
          1.175968 -3.670285 -0.500000
          -0.297621 1.201750 -0.500000
          0.781731 0.081388 1.851220
          3.000110 -1.277639 -0.500000
          0.875271 -3.627191 -0.500000
          -2.944875 2.043371 -0.493234
          0.815388 3.241818 -0.500000
          -2.203098 -0.298259 -0.500000
          -2.203619 -0.298663 -0.500000
          3.090973 -1.358170 -0.500000
          0.171931 -1.326533 -0.500000
          -2.201593 -0.291161 -0.500000
          -1.498576 1.641323 -0.499024
          1.318721 0.323712 1.850733
          0.487339 -0.654510 1.850071
          1.124279 -3.637320 -0.500000
          -0.588491 1.935123 -0.239379
          2.986501 -0.937688 -0.500000
          1.481571 3.704834 -0.500000
          -0.188252 -3.813563 -0.500000
          -2.195562 -0.302300 -0.500000
          -0.477461 -1.075813 1.058727
          0.899018 -3.619218 -0.500000
          1.435879 -3.720192 -0.500000
          -0.516381 -3.744622 -0.500000
          -1.407961 1.704947 -0.465689
          0.393787 -1.616492 -0.500000
          0.478614 -0.614012 1.849055
          -0.506908 1.122944 -0.500000
          -0.548698 -0.255506 1.845614
          -2.205941 -0.295694 -0.500000
          0.858932 -3.629454 -0.500000
          -0.446159 -1.072745 1.068873
          -0.529831 1.919941 -0.254165
          1.243898 0.126676 1.847082
          3.042157 -1.330153 -0.500000
          0.610498 -0.610486 1.846404
          1.221459 3.618646 -0.500000
          -4.041734 -1.189087 -0.500000
          -1.464677 1.649411 -0.486575
          0.556772 -0.635846 1.847064
          -2.203043 -0.281685 -0.500000
          1.178531 0.179485 1.851144
          0.704258 0.135249 1.851171
          1.433160 -3.674505 -0.500000
          0.918808 0.063458 1.847095
          0.810078 3.108739 -0.500000
          -0.415761 -0.776202 1.850418
          -0.385608 -0.801835 1.849970
          -0.506019 0.521358 1.853995
          -2.192349 3.355988 -0.500000
          -0.674814 0.157030 1.854382
          -0.698363 -0.065947 1.850882
          -1.260692 1.110313 -0.500000
          0.918565 -3.585499 -0.500000
          -0.276051 1.192661 -0.500000
          -4.021715 -1.267692 -0.500000
          -0.056102 -1.538377 -0.500000
          -0.436734 0.215866 1.846487
          1.217424 3.000006 -0.500000
          -1.394506 1.729643 -0.500000
          -0.730144 -0.222695 1.846501
          0.838140 3.134644 -0.500000
          -0.353296 -0.739696 1.850452
          -2.189352 -0.289922 -0.500000
          1.420929 -3.765817 -0.500000
          1.377548 -3.638831 -0.500000
          1.284291 3.552061 -0.500000
          0.978620 -3.711193 -0.500000
          -1.364557 1.720813 -0.484932
          -4.059989 -1.250049 -0.500000
          -0.464314 -1.072703 1.062433
          0.865542 2.954654 -0.500000
          -0.713870 0.514508 1.846263
          -0.380606 -0.542549 1.852434
          1.240020 3.356623 -0.500000
          -0.467344 -1.085293 1.034013
          -0.850505 0.696606 1.850238
          -0.553123 0.178603 1.855848
          -0.887568 -0.662299 1.850270
          -0.632248 -0.486322 1.851709
          1.540271 3.840769 -0.500000
          -0.185435 -3.778490 -0.500000
        </DataArray>
      </Points>
      <PointData Scalars="density">
        <DataArray type="Float64" Name="density" format="ascii">
          856.078774
          1071.907033
          944.912801
          955.805680
          955.219723
          983.195248
          1015.550156
          1016.584838
          935.136734
          848.621782
          948.633668
          990.543970
          1020.397589
          964.143306
          1053.904466
          925.524837
          1076.151188
          910.167033
          973.740412
          1101.616684
          1000.312853
          966.419026
          1031.677460
          848.415921
          873.314232
          798.317670
          992.926443
          918.900347
          999.961107
          1005.906764
          1000.419522
          959.101916
          892.697878
          1045.477152
          992.197685
          1010.125025
          968.121815
          1034.082916
          924.137770
          1003.071842
          868.377694
          1110.864209
          985.228933
          772.697815
          963.206718
          715.383235
          1034.046438
          1030.489871
          968.963859
          967.848124
          993.056933
          999.407053
          982.641331
          1159.085374
          1023.605661
          897.653373
          966.002463
          860.367434
          974.919027
          978.590448
          979.565717
          987.694507
          895.501345
          881.838896
          1108.798326
          953.570391
          888.261067
          891.316456
          1037.775501
          935.407033
          997.612695
          943.184023
          500.000000
          990.228077
          999.238265
          914.768974
          982.510433
          500.000000
          989.122145
          988.035604
          932.569831
          1016.959186
          1006.861087
          905.151876
          909.614392
          984.542878
          977.139825
          965.996283
          1135.328795
          1005.898771
          948.633160
          919.474136
          878.379669
          942.155009
          1030.577054
          956.929444
          927.599125
          924.691988
          983.805655
          908.761249
          1018.862460
          887.223915
          500.000000
          953.837066
          917.571969
          873.508498
          1005.779865
          500.000000
          937.524494
          1056.144283
          996.883241
          1103.993267
          1024.322155
          1001.392219
          835.056550
          857.389426
          875.674078
          781.069881
          906.666741
          1061.104398
          1025.264136
          893.064440
          1038.534335
          1012.236609
          1030.963145
          994.080250
          971.540375
          1078.446077
          952.547562
          874.651837
          977.069328
          952.468874
          976.016778
          993.919083
          999.634973
          843.975233
          1005.491729
          884.329737
          852.006286
          1028.325569
          970.372272
          986.201140
          906.855376
          692.238367
          500.000000
          1105.296542
          858.945028
          942.167321
          932.084439
          500.000000
          841.095490
          984.776052
          1148.354717
          862.770709
          1048.426825
          940.143249
          1061.219747
          739.039288
          945.723453
          976.707168
          601.575443
          1010.575724
          985.407604
          785.092344
          1002.612662
          641.810009
          626.666322
          1079.155001
          906.974042
          937.516549
          875.953033
          994.607624
          985.994347
          1101.422964
          500.000000
          1004.890534
          933.320200
          1009.339235
          968.433093
          500.000000
          500.000000
          1036.249872
          847.407817
          858.461717
          904.252604
          956.208834
          989.021895
          1123.356688
          962.088469
          906.364487
          1090.005045
          500.000000
          935.650510
          928.274136
          998.374661
          795.241105
          1224.083864
          864.060401
          1004.244593
          919.530355
          1000.993824
          962.885378
          1083.503603
          887.345221
          885.132689
          990.278759
          935.991748
          1022.792733
          1081.814797
          762.158857
          500.000000
          1000.477160
          980.251101
          1015.188290
          961.124670
          1021.163643
          500.000000
          937.652349
          982.834101
          985.702326
          953.814699
          814.098957
          1037.084701
          962.056782
          958.190925
          1059.572114
          1000.859572
          987.889326
          1048.901837
          965.011835
          941.978463
          1006.515242
          1117.298274
          1001.725783
          949.467811
          968.132885
          996.183017
          994.203241
          1038.829538
          1102.606927
          955.391541
          972.097243
          997.024617
          1219.713800
          882.143529
          1157.506773
          500.000000
          1089.549216
          926.557660
          939.502143
          933.198457
          1150.111227
          763.610167
          1065.589033
          1028.196115
          1046.432276
          906.808385
          1026.836437
          877.289224
          922.769125
          1063.082966
          964.858175
          955.394782
          970.136319
          989.886425
          1117.142497
          998.557064
          881.809475
          889.835279
          901.103516
          961.846018
          883.232890
          892.583882
          926.412525
          993.451813
          990.442082
          907.208676
          994.761755
          1073.873855
          1072.145017
          896.609087
          1046.018004
          1004.592761
          1014.794192
          937.375643
          954.982474
          1030.893614
          832.796990
          500.000000
          1018.432435
          835.571155
          989.686977
          885.098770
          844.098422
          953.489059
          939.991572
          1090.864135
          944.139719
          964.281270
          1129.842588
          640.645608
          592.500923
          982.036650
          1142.930483
          897.281808
          929.114010
          848.896897
          986.153739
          1149.782377
          1024.204900
          820.193286
          1077.276295
          994.840058
          1040.142127
          969.493974
          1040.217687
          982.353051
          972.579916
          500.000000
          920.081432
          835.286643
          835.141855
          984.149395
          758.502113
          835.524349
          1068.201449
          965.555699
          970.095188
          1039.675923
          991.382337
          912.964766
          1077.782203
          1028.512973
          834.536680
          639.812543
          1018.935110
          1002.603222
          1025.315645
          982.628738
          942.526865
          958.041210
          1036.277509
          1004.264711
          835.543162
          925.773635
          636.227471
          1012.967683
          1064.945805
          1009.480842
          973.744703
          874.113637
          974.853065
          1097.477680
          1024.480154
          834.650637
          1116.613058
          1018.853427
          966.167284
          862.318821
          938.541549
          924.183573
          831.324759
          909.283530
          998.831757
          943.298478
          894.347108
          988.643912
          1015.833468
          927.950706
          979.897863
          820.389399
          907.727870
          930.509394
          922.088526
          949.803057
          1025.432685
          832.613754
          835.085016
          996.666858
          1011.627335
          965.389878
          1012.594549
          912.838400
          989.432012
          638.466956
          872.035350
          1004.184614
          977.651521
          857.539878
          640.242792
          1078.524715
          1098.751687
          957.284635
          1129.469860
          938.531398
          996.161071
        </DataArray>
        <DataArray type="Float64" Name="pressure" format="ascii">
          -4317.636794
          2157.210988
          -1652.615980
          -1325.829587
          -1343.408320
          -504.142561
          466.504685
          497.545140
          -1945.897977
          -4541.346541
          -1540.989959
          -283.680900
          611.927660
          -1075.700826
          1617.133994
          -2234.254887
          2284.535647
          -2694.989012
          -787.787632
          3048.500531
          9.385590
          -1007.429207
          950.323806
          -4547.522375
          -3800.573054
          -6050.469906
          -212.206720
          -2432.989600
          -1.166796
          177.202909
          12.585662
          -1226.942518
          -3219.063667
          1364.314566
          -234.069446
          303.750752
          -956.345553
          1022.487477
          -2275.866897
          92.155263
          -3948.669177
          3325.926261
          -443.132024
          -6819.065555
          -1103.798462
          -8538.502944
          1021.393151
          914.696134
          -931.084221
          -964.556287
          -208.292009
          -17.788401
          -520.760055
          4772.561210
          708.169822
          -3070.398819
          -1019.926097
          -4188.976989
          -752.429197
          -642.286546
          -613.028497
          -369.164783
          -3134.959654
          -3544.833134
          3263.949771
          -1392.888282
          -3352.167992
          -3260.506308
          1133.265024
          -1937.789002
          -71.619153
          -1704.479323
          -15000.000000
          -293.157678
          -22.852047
          -2556.930780
          -524.686995
          -15000.000000
          -326.335656
          -358.931870
          -2022.905059
          508.775585
          205.832606
          -2845.443714
          -2711.568254
          -463.713650
          -685.805246
          -1020.111507
          4059.863862
          176.963118
          -1541.005196
          -2415.775931
          -3648.609935
          -1735.349722
          917.311605
          -1292.116667
          -2172.026262
          -2259.240365
          -485.830358
          -2737.162532
          565.873792
          -3383.282562
          -15000.000000
          -1384.888029
          -2472.840943
          -3794.745059
          173.395959
          -15000.000000
          -1874.265194
          1684.328499
          -93.502771
          3119.798003
          729.664649
          41.766573
          -4948.303509
          -4278.317231
          -3729.777664
          -6567.903564
          -2799.997762
          1833.131951
          757.924092
          -3208.066789
          1156.030061
          367.098265
          928.894357
          -177.592493
          -853.788746
          2353.382300
          -1423.573138
          -3760.444891
          -687.920169
          -1425.933794
          -719.496665
          -182.427503
          -10.950805
          -4680.743020
          164.751860
          -3470.107898
          -4439.811431
          849.767061
          -888.831839
          -413.965804
          -2794.338722
          -9232.848986
          -15000.000000
          3158.896252
          -4231.649168
          -1734.980385
          -2037.466844
          -15000.000000
          -4767.135299
          -456.718439
          4450.641497
          -4116.878732
          1452.804738
          -1795.702533
          1836.592421
          -7828.821351
          -1628.296412
          -698.784969
          -11952.736714
          317.271730
          -437.771874
          -6447.229670
          78.379853
          -10745.699722
          -11200.010354
          2374.650024
          -2790.778729
          -1874.503526
          -3721.409016
          -161.771275
          -420.169602
          3042.688922
          -15000.000000
          146.716015
          -2000.394003
          280.177037
          -947.007208
          -15000.000000
          -15000.000000
          1087.496165
          -4577.765490
          -4246.148491
          -2872.421891
          -1313.734982
          -329.343143
          3700.700650
          -1137.345935
          -2809.065385
          2700.151340
          -15000.000000
          -1930.484695
          -2151.775932
          -48.760165
          -6142.766843
          6722.515928
          -4078.187972
          127.337797
          -2414.089337
          29.814713
          -1113.438667
          2505.108086
          -3379.643373
          -3446.019334
          -291.637220
          -1920.247571
          683.782003
          2454.443910
          -7135.234284
          -15000.000000
          14.314800
          -592.466961
          455.648698
          -1166.259906
          634.909294
          -15000.000000
          -1870.429525
          -514.976973
          -428.930216
          -1385.559024
          -5577.031300
          1112.541039
          -1138.296543
          -1254.272242
          1787.163407
          25.787166
          -363.320229
          1467.055119
          -1049.644959
          -1740.646120
          195.457259
          3518.948213
          51.773486
          -1515.965661
          -956.013447
          -114.509488
          -173.902783
          1164.886146
          3078.207803
          -1338.253762
          -837.082713
          -89.261503
          6591.414007
          -3535.694140
          4725.203184
          -15000.000000
          2686.476493
          -2203.270191
          -1814.935704
          -2004.046292
          4503.336817
          -7091.695001
          1967.671002
          845.883439