<?xml version="1.0"?>
<VTKFile type="PolyData" version="0.1" byte_order="LittleEndian" header_type="UInt32" compressor="vtkZLibDataCompressor">
  <PolyData>
    <Piece NumberOfPoints="686" NumberOfVerts="686" NumberOfLines="0" NumberOfStrips="0" NumberOfPolys="0">
      <PointData>
        <DataArray type="Float64" Name="density" format="ascii" RangeMin="500" RangeMax="1009.8554384333994">
          999.9999999999991 1000.0000000001937 1000.0000000000006 1000.0185396723755 1000.0000000000005 831.4506600988594
          1000.0000000000033 999.9999999999976 999.9999999999994 998.6516629926158 999.9491383914318 999.9999999999987
          975.2855525075356 998.9743295839429 999.9999999999944 1000.0000016407903 999.999999999999 998.6445285504952
          999.9999999999939 1000.04539428888 999.6303228406009 1000.000000000003 999.9936665057131 994.6362946326775
          1000.0000000000007 999.9999999999947 999.9999999999989 998.6928350199407 999.9999999999951 999.9798522046084
          1000.0000000000025 999.9999999999943 999.9998259852144 999.9999999999926 996.9935031885304 1000.0000000000003
          1000.0000000000019 999.9999999999843 1000.0000000000007 1000.0000000007525 989.4045872437692 1002.4082753819495
          999.9999999999965 1000.0000000000011 999.9999999996039 1000.000000000004 999.9999999999973 1000.0000015574602
          999.9999999999975 1000.0000000000007 1000.0545209648195 617.8813178009805 1000.0000000000063 619.2389839923994
          999.9999999999998 999.9999999999997 999.999999999477 1000.0000000000003 999.9945012608647 1000.0000000000019
          831.3878190736125 999.9999999999997 999.9999999999701 999.9999999999991 999.9999999999995 1000.0000004088067
          619.238983991685 999.9999999884524 999.9999999999982 999.9999999999995 999.9999999995842 1000
          999.9999999999981 1000.0000005992101 1000.0000000000063 1000.0000000000039 1000.0000000000069 999.999999999999
          1000.0002511455042 1000.0000000642897 500 999.9999999334832 1000.0000000006446 999.9999999999994
          999.9999998573944 999.9999999999922 999.9999999999989 998.7723218267151 831.0529622673977 1000.0000000000001
          998.8092149257005 1001.2581588777084 999.9999999999978 500 1000.0000000000019 500
          1000.0000000000025 999.9882827386658 1000.00000000004 999.9998323031326 999.9999999999989 831.443297202683
          972.1905091331447 1000.000000000001 999.9999999999998 999.9999999999999 831.0286252363796 999.9792810317408
          999.9999999999727 999.9999999999902 1000.000000000001 1000.0000000000015 999.9999999999945 999.9999999999991
          999.9999987026725 999.9999999999983 999.9999999999995 1000 999.994699333223 831.3198313665839
          999.9999999999885 999.9999999999998 999.9999999999982 999.9822109969098 1009.8554384333994 831.2391772873327
          1000.0000000000043 999.9851383624152 999.9947693206061 1000.000000000006 831.8677967105561 999.9881433891736
          1000.0000000000013 999.9999999999991 831.3279604287709 999.9999999999998 1000.0000000001467 1000.0000000000017
          1000.0000000000014 1000.0000000000086 999.919249818919 1000.0000000000001 999.9999999611794 831.5054847914372
          998.5904021567794 999.9999999999882 999.9999999989031 999.9999999999953 1000.0000000000052 831.443297202683
          999.9999999999992 831.0877171221141 1000.0000000000061 999.9999999999995 999.9999999999936 999.9999999999968
          999.9999999999999 1000.0007175845444 1000.0000000000014 999.9999999999999 999.9999999999999 831.2010244595908
          999.9999999999999 831.0286252363795 999.9999999999994 999.999999999999 999.999999999999 831.2803647340345
          1000.0000000000201 999.9801229787324 500 999.9999999999966 999.9999999999247 1000.0734926333442
          1000.0000000000003 831.3198313665839 1000.0000000000006 831.327960428771 999.9930082552778 1000.0000000000045
          999.9999999999986 831.2391772873327 1000.0000000000049 999.9745855366526 1000.0000000000015 999.999987192523
          1000.0000000000011 999.9921699786213 999.9999999999997 999.999015383841 999.9999999999993 831.5054847914372
          1000.0375818886649 831.0289276218241 999.9999999999937 999.988610302156 999.999999999999 999.9999820418767
          1000.000000000003 831.0877171221141 999.9999999999957 999.9999999999977 1000.0000000000005 1000.0000000000001
          999.9999997304337 999.9812792129425 1000.0000000000017 831.3991886638247 831.0529622673977 1000.0000000000011
          999.999999999999 999.9999999988174 999.9999999999999 1000.0000000000013 1000.0000000000009 999.9999999999986
          999.9999999999995 831.2010244595908 999.9419351727962 999.999999999957 999.9999997660832 1000.012057305764
          998.7980826270767 831.2803647340345 999.99999999998 999.9999999998793 997.3870869648488 1000.0000000000052
          999.9999999999997 1001.323695767466 1000.0000000000024 999.9999999999993 999.9999999999985 999.9999999999995
          1000.0000003504026 999.9999999999995 999.9999999999983 1000.0000000000008 1000.0007649162294 1000.00293701512
          1000.0000000000125 831.0289276218241 999.9999999999981 999.9999999999984 1000.006272183451 1000.0409210075273
          831.5057781590064 999.9999999999981 999.999987563073 999.9999999999992 1000.0000000000024 1000.0000000000011
          831.5057781590064 999.9999999999995 1000.0000000000011 999.9999796859271 1000.0000000000003 1000.0000000000016
          999.9999999999976 995.9023201295106 1000.0000000000003 999.9999999999998 1000.0000000000036 1000.0000000000008
          999.9999999999972 999.7774088459024 999.9999999999995 1000.000000000003 1000.0000000000774 999.9999999999937
          1000.0000000000003 1000.0000000000009 999.999999999945 997.2100244313988 1000.0380075341285 1000.0120643970363
          999.9999991150048 999.9843097136935 1000.0165109566153 999.4796802747624 831.1933146466699 1000.0514280134208
          1001.2517294458078 999.9999999999955 1000.0044650217837 1000.1090468367865 1000.0000000000049 999.9999999999998
          831.1933146466698 999.9999999999987 999.9999999999993 1000.0000000000003 1000.0000000000031 999.9999994888468
          1000.0000000000017 1000.0000000000048 1000.0000000000016 1000.0000008239256 999.9999999999991 1000.0000000000008
          1000.0000000000033 1000 1000.0000000000006 999.9999953060025 999.9999999999985 999.9999999999999
          1000.0000000000013 999.9999999999991 997.7897547967302 999.9999822582975 1000.000000282894 500
          1000.0000000000009 1000.0000000000017 999.625470474318 1000.2223811667573 500 999.936411776433
          1000.0000000000324 999.9999999999994 1000.4304215107411 1000.0373263006272 1008.7081791128383 1000.0035650642777
          999.9999999999862 998.7598933660632 1000.0147384170571 1000.0000000000023 999.2341205423312 1000.0136103888966
          999.9999997663709 1000.0004823836363 1000.0000000000016 1000.0000000000002 1000.000000028722 1000.0000000000006
          999.9905464987474 1001.2688127265582 1000 1000.0435627246093 999.9999999999976 999.9846586987461
          999.9999999999967 1000.0000000000008 999.9999999999975 1000.0000023996755 999.9999999999997 1000.0000000000005
          999.9999999999999 999.999999999997 1000.0000000000003 1000.0000000000006 1000.0000000000005 1000.0000000000031
          999.9999999999998 1000.0000002725183 999.9999999999991 1000.1339741178112 999.9999999999987 1000.0000001599232
          999.9999999999959 999.9999999999998 1000.0000000000007 999.9999999999961 996.9863253010454 500
          999.9999995635259 999.4965187833924 1000.0000000000026 999.9999999999698 1000.0908029918245 1000.1257987406283
          999.9999999999999 999.749856975979 999.9999999999965 1000.0003369407301 999.9996678230639 999.9999999999935
          999.9914121100688 1000.0012213965673 1000.0000000000008 999.9760543724058 999.9997412073158 1000.0000001274792
          999.9991880462262 999.9182712293563 1001.1603854907419 999.9959201067257 1000.0000000000032 999.9617324964959
          1000.0007379602807 1000.0000000000005 1000.0000000000017 831.3075115439848 1000.0000010772366 1000.0000005551104
          1000.0000007204941 999.9999999999986 1000.0000000000006 831.2128029334178 999.9999999999997 999.9999999999997
          1000.0271426980673 1000.0000000000001 999.9999999999991 1000.0000000000048 1000.1909349081258 999.9999999999981
          1000.0000000000032 1000.0020651197996 1000.0000000000006 1000.0000000000013 1000.0000000000196 500
          1000.0000000000001 831.1889485258929 1000.0000000000049 1000.5337374628457 1000.000000000002 999.9062153161008
          1000.0472776124637 1001.317523166456 999.9991276215145 999.9999999999982 1000.0000000000007 1000.0004421485609
          999.8830471123701 831.3588913721378 997.3870869276096 1001.3354647132055 1000.0004884450605 999.9684910028733
          1000.0069405867986 999.9999999999995 1001.7448759048015 831.3588913721377 999.9916052479247 999.9681919923313
          1000.0547113231349 999.9999999999987 1000.0000000000009 1000.0000000000026 1000.0000000000003 999.9999999999975
          831.450484102726 999.9999999999964 999.9999999999983 1000 1000.0000008118371 1000.00000049026
          999.9999996624182 998.5255205130762 999.0515747987885 999.9812568703886 1000.0000000000005 1000.0000000000005
          1000.0000000000006 1000.0000000000038 1000.0000000000055 1000 1000.0000000000003 1000.0000000000002
          831.4164302885417 998.5696121163946 1003.432791339446 999.9999999999998 999.9999998580024 999.9999999999983
          831.5033808979324 999.9999998868069 1000.000000000001 1000.0043924386492 999.5196909633208 999.9878527981402
          1000.000000000001 1000.0000000000014 999.9902112259042 999.999999999999 1000.0000000000007 999.999999524809
          999.9999999999993 999.0708422348798 1000.0010716554265 999.9996165436339 999.9999999999978 999.9999999254345
          831.1551492553638 1000.0000000000014 999.9997391071214 999.9921644043553 1000 999.9999999999998
          831.0811983537895 999.9999999999983 831.4504841027259 999.9999999999995 1000 1000.0000000000019
          999.9999999999984 999.999998549738 999.9999999999989 1000.0000000000015 999.9999999999999 999.9999999999959
          831.1119659574007 1000.0000692854445 831.2128029334178 1000.0000021196593 999.999999999997 999.9999999999999
          831.0310836805963 831.1889485258927 999.9999999999994 999.9999999999144 999.9999999999982 999.8846469479281
          999.9999996749428 999.999999999997 831.1119659574007 1000.003089586149 831.1643973072518 999.999999999999
          1000.0000000000002 999.9997488024514 831.0310836805961 1000.00000001279 997.3870869270788 1000.0021783250826
          999.9999999885318 1000.0005190768346 999.9923949933212 999.9999999999977 999.9990995257853 1000.000000011089
          831.3689214311162 1000.0000000000023 831.1551492553638 999.9999999999956 1000.0127796656977 999.999999999743
          1000.0000000000018 999.5384276781507 831.0811983537894 999.9999999999862 999.9999999999995 999.9999999999998
          999.9999999999991 831.3075115439848 1000.0000000000057 999.9999999999955 999.9999999999999 999.999999999996
          1000.0000024845841 1000.0000000000073 999.9999999999962 1000.0000001717601 1001.264953679744 999.999999999997
          999.9999999999986 1000.0000000000014 831.4164302885415 999.9999334673123 1000.0005795531595 1000.0000000000022
          999.9986688131589 1000.1176760719625 831.5033808979322 999.9999982236732 1000.0001704541548 1000.0029025395617
          999.9999998631663 999.9314934344848 999.9999999999993 999.9999999999978 1000.0000000000013 831.1643973072516
          999.9999999460608 996.8992410715169 1000.0000000000102 1000.0000000000036 999.9986741877707 1000.0000000000015
          1000.0000000000015 1000.0000000000019 831.3689214311161 999.9999999999839 999.9999999999983 999.9999992166614
          999.9999999999995 999.9999999999959 617.8813178009792 999.9999999999973 619.2389850622965 999.9999999999987
          999.9999999999994 1000.000000345404 1000.0000000000015 999.9999999999991 999.9822539358975 978.6352971926399
          1000.0000000000009 999.9999999999983 1000.000000000001 999.9999999999994 1000 619.2389829217872
          999.9999999999999 999.9999999999955 999.9999999999981 831.3325864519596 1000.000000000001 999.9999999999998
          1000.0000000000002 999.9999999999992 996.9575998983386 831.4810293082871 1000.0000000000019 999.9998534962484
          1000 618.0382390752955 1000.0000000000001 999.9999999999986 1000.0000000000002 1000.0000000000001
          1000.0000000188681 999.9999999999977 1000.0756450217497 831.4810293082871 1000.0000000000018 999.9999999999936
          1000.0040080192126 996.9444687399373 619.9740428545292 1000.0000000000043 618.0382387869907 1000.000001107272
          1000.0000000000005 999.0819487628576 1000.0000000000017 1000.0000000000002 1000.0000001377243 1001.5328593073468
          1000.0000002452118 999.9999999999992 999.9999999999986 1000.000000000001 999.9999378617435 999.5184531801965
          999.9999999999975 1000.0000000000022 999.8840016880154 999.9999999999962 996.7901000370376 999.9999990595933
          999.9999375063006 999.9999994409018 1000.0000000000013 998.5675825493598 999.9999999999866 999.9999999999998
          999.9999999999839 999.9999999999981 999.9999999999997 999.9999999999987 1000.0000000000008 999.9999999999859
          1000.0000000000052 1000.0000000000032 1000.0000000000049 1000.0000012240325 1000.000000000001 999.8973100874799
          999.9999999999952 831.3325864519596 999.9999336864926 999.9999998475755 1000.015882989266 1000.0000000000024
          999.8972370611697 1000.0000003147888 1000.0000000000049 1000.0000017744943 998.5274276237789 1000.0004192252144
          1000.0000000000005 999.9999999999976
        </DataArray>
        <DataArray type="Float64" Name="pressure" format="ascii" RangeMin="-60000" RangeMax="1182.652612007928">
          -1.0913936421275139e-10 2.3246684577316046e-8 6.821210263296962e-11 2.224760685057845 5.4569682106375694e-11 -20225.920788136867
          3.956301952712238e-10 -2.864908310584724e-10 -6.821210263296962e-11 -161.8004408861043 -6.103393028183746 -1.5006662579253316e-10
          -2965.7336990957265 -123.08044992685154 -6.684786058031023e-10 0.00019689483451656997 -1.227817847393453e-10 -162.65657394057143
          -7.366907084360719e-10 5.447314665593694 -44.36125912789066 3.54702933691442e-10 -0.7600193144253353 -643.6446440786995
          8.185452315956354e-11 -6.411937647499144e-10 -1.3642420526593924e-10 -156.85979760711234 -5.866240826435387e-10 -2.4177354469929924
          3.001332515850663e-10 -6.821210263296962e-10 -0.020881774266854336 -8.86757334228605e-10 -360.77961737634723 4.092726157978177e-11
          2.319211489520967e-10 -1.8826540326699615e-9 8.185452315956354e-11 9.029918146552518e-8 -1271.449530747691 288.99304583393587
          -4.2291503632441163e-10 1.3642420526593924e-10 -4.753019311465323e-8 4.774847184307873e-10 -3.2741809263825417e-10 0.00018689522676140768
          -3.001332515850663e-10 8.185452315956354e-11 6.542515778342022 -45854.241863882344 7.503331289626658e-10 -45691.32192091207
          -2.7284841053187847e-11 -4.092726157978177e-11 -6.275513442233205e-8 4.092726157978177e-11 -0.6598486962366223 2.319211489520967e-10
          -20233.4617111665 -4.092726157978177e-11 -3.587956598494202e-9 -1.0913936421275139e-10 -5.4569682106375694e-11 0.00004905680725642014
          -45691.3219209978 -0.0000013857152225682512 -2.1827872842550278e-10 -5.4569682106375694e-11 -4.989033186575398e-8 0
          -2.319211489520967e-10 0.0000719052150088828 7.503331289626658e-10 4.638422979041934e-10 8.321876521222293e-10 -1.227817847393453e-10
          0.030137460503283364 0.00000771476152294781 -60000 -0.000007982016541063786 7.735252438578755e-8 -6.821210263296962e-11
          -0.000017112670320784673 -9.413270163349807e-10 -1.3642420526593924e-10 -147.32138079418291 -20273.644527912278 1.3642420526593924e-11
          -142.89420891593636 150.9790653250093 -2.5920599000528455e-10 -60000 2.319211489520967e-10 -60000
          3.001332515850663e-10 -1.4060713601020325 4.802132025361061e-9 -0.020123624085499614 -1.3642420526593924e-10 -20226.804335678044
          -3337.138904022636 1.227817847393453e-10 -2.7284841053187847e-11 -1.3642420526593924e-11 -20276.56497163444 -2.486276191102661
          -3.2741809263825417e-9 -1.1732481652870774e-9 1.227817847393453e-10 1.77351466845721e-10 -6.548361852765083e-10 -1.0913936421275139e-10
          -0.00015567929494864075 -2.0463630789890885e-10 -5.4569682106375694e-11 0 -0.6360800132370059 -20241.62023600993
          -1.3778844731859863e-9 -2.7284841053187847e-11 -2.1827872842550278e-10 -2.134680370827482 1182.652612007928 -20251.29872552007
          5.184119800105691e-10 -1.783396510172679 -0.6276815272667591 7.23048287909478e-10 -20175.86439473326 -1.4227932991661874
          1.5006662579253316e-10 -1.0913936421275139e-10 -20240.644748547493 -2.7284841053187847e-11 1.759872247930616e-8 2.0463630789890885e-10
          1.6370904631912708e-10 1.0368239600211382e-9 -9.690021729725231 1.3642420526593924e-11 -0.000004658477337216027 -20219.341825027535
          -169.15174118646974 -1.418811734765768e-9 -1.3162207324057817e-7 -5.593392415903509e-10 6.275513442233205e-10 -20226.804335678044
          -9.549694368615746e-11 -20269.473945346308 7.366907084360719e-10 -5.4569682106375694e-11 -7.639755494892597e-10 -3.8198777474462986e-10
          -1.3642420526593924e-11 0.08611014533016714 1.6370904631912708e-10 -1.3642420526593924e-11 -1.3642420526593924e-11 -20255.8770648491
          -1.3642420526593924e-11 -20276.564971634456 -6.821210263296962e-11 -1.227817847393453e-10 -1.227817847393453e-10 -20246.35623191586
          2.4147084332071245e-9 -2.385242552109048 -60000 -4.092726157978177e-10 -9.031282388605177e-9 8.81911600130934
          4.092726157978177e-11 -20241.62023600993 6.821210263296962e-11 -20240.64474854748 -0.8390093666639586 5.456968210637569e-10
          -1.6370904631912708e-10 -20251.29872552007 5.866240826435387e-10 -3.0497356016849153 1.77351466845721e-10 -0.0015368972390206181
          1.3642420526593924e-10 -0.9396025654450568 -4.092726157978177e-11 -0.11815393908364058 -8.185452315956354e-11 -20219.341825027535
          4.509826639791754 -20276.52868538111 -7.503331289626658e-10 -1.366763741284558 -1.227817847393453e-10 -0.002154974795303133
          3.54702933691442e-10 -20269.473945346308 -5.184119800105691e-10 -2.7284841053187847e-10 5.4569682106375694e-11 1.3642420526593924e-11
          -0.00003234795258322265 -2.246494446903853 2.0463630789890885e-10 -20232.097360341035 -20273.644527912278 1.3642420526593924e-10
          -1.227817847393453e-10 -1.4190845831763e-7 -1.3642420526593924e-11 1.5006662579253316e-10 1.0913936421275139e-10 -1.6370904631912708e-10
          -5.4569682106375694e-11 -20255.8770648491 -6.967779264455203 -5.156834959052503e-9 -0.000028070016924175434 1.446876691675243
          -144.23008475079314 -20246.35623191586 -2.4010660126805305e-9 -1.4488250599242747e-8 -313.54956421814677 6.275513442233205e-10
          -4.092726157978177e-11 158.84349209592074 2.864908310584724e-10 -8.185452315956354e-11 -1.77351466845721e-10 -5.4569682106375694e-11
          0.0000420483138441341 -5.4569682106375694e-11 -2.0463630789890885e-10 9.549694368615746e-11 0.09178994752801373 0.35244181439793465
          1.5006662579253316e-9 -20276.52868538111 -2.319211489520967e-10 -1.9099388737231493e-10 0.7526620141152307 4.910520903281395
          -20219.306620919237 -2.319211489520967e-10 -0.0014924312426956021 -9.549694368615746e-11 2.864908310584724e-10 1.3642420526593924e-10
          -20219.306620919237 -5.4569682106375694e-11 1.3642420526593924e-10 -0.0024376887495236588 4.092726157978177e-11 1.9099388737231493e-10
          -2.864908310584724e-10 -491.7215844587281 4.092726157978177e-11 -2.7284841053187847e-11 4.3655745685100555e-10 9.549694368615746e-11
          -3.410605131648481e-10 -26.710938491710294 -5.4569682106375694e-11 3.54702933691442e-10 9.290488378610462e-9 -7.503331289626658e-10
          4.092726157978177e-11 1.0913936421275139e-10 -6.602931534871459e-9 -334.79706823214656 4.560904095419573 1.4477276443540177
          -0.0001061994225892704 -1.8828343567793127 1.9813147938384645 -62.43836702851695 -20256.802242399608 6.171361610499844
          150.20753349693223 -5.456968210637569e-10 0.5358026140493166 13.08562041438563 5.866240826435387e-10 -2.7284841053187847e-11
          -20256.802242399623 -1.5006662579253316e-10 -8.185452315956354e-11 4.092726157978177e-11 3.6834535421803594e-10 -0.0000613383826930658
          2.0463630789890885e-10 5.729816621169448e-10 1.9099388737231493e-10 0.00009887106898531783 -1.0913936421275139e-10 9.549694368615746e-11
          3.956301952712238e-10 0 6.821210263296962e-11 -0.0005632797046928317 -1.77351466845721e-10 -1.3642420526593924e-11
          1.5006662579253316e-10 -1.0913936421275139e-10 -265.2294243923734 -0.0021290043059707386 0.00003394728082639631 -60000
          1.0913936421275139e-10 2.0463630789890885e-10 -44.94354308183574 26.685740010871086 -60000 -7.63058682803603
          3.888089850079268e-9 -6.821210263296962e-11 51.65058128893179 4.479156075267383 1044.9814935405902 0.42780771332672884
          -1.6507328837178648e-9 -148.8127960724114 1.7686100468472432 2.7284841053187847e-10 -91.90553492025629 1.6332466675930846
          -0.000028035487957822625 0.057886036352101655 1.9099388737231493e-10 2.7284841053187847e-11 0.0000034466347642592154 6.821210263296962e-11
          -1.1344201503061413 152.25752718698004 0 5.227526953112829 -2.864908310584724e-10 -1.8409561504677185
          -3.956301952712238e-10 9.549694368615746e-11 -3.001332515850663e-10 0.0002879610610762029 -4.092726157978177e-11 5.4569682106375694e-11
          -1.3642420526593924e-11 -3.54702933691442e-10 4.092726157978177e-11 6.821210263296962e-11 5.4569682106375694e-11 3.6834535421803594e-10
          -2.7284841053187847e-11 0.00003270219167461619 -1.0913936421275139e-10 16.076894137349882 -1.5006662579253316e-10 0.000019190779312339146
          -4.911271389573812e-10 -2.7284841053187847e-11 8.185452315956354e-11 -4.638422979041934e-10 -361.6409638745472 -60000
          -0.00005237689492787467 -60.4177459929133 3.1377567211166024e-10 -3.6288838600739837e-9 10.89635901893871 15.09584887539404
          -1.3642420526593924e-11 -30.017162882518278 -4.2291503632441163e-10 0.04043288761295116 -0.039861232335169916 -7.776179700158536e-10
          -1.0305467917396527 0.14656758807632286 9.549694368615746e-11 -2.8734753113076295 -0.031055122108227806 0.000015297505342459772
          -0.0974344528549409 -9.807452477248262 139.24625888902483 -0.48958719291022135 3.8198777474462986e-10 -4.592100420495626
          0.08855523368765716 5.4569682106375694e-11 2.0463630789890885e-10 -20243.098614721825 0.0001292683873543865 0.00006661325187451439
          0.00008645929028716637 -1.6370904631912708e-10 6.821210263296962e-11 -20254.46364798986 -4.092726157978177e-11 -4.092726157978177e-11
          3.257123768080419 1.3642420526593924e-11 -1.0913936421275139e-10 5.729816621169448e-10 22.91218897509225 -2.319211489520967e-10
          3.8198777474462986e-10 0.24781437594810996 6.821210263296962e-11 1.5006662579253316e-10 2.346496330574155e-9 -60000
          1.3642420526593924e-11 -20257.326176892853 5.866240826435387e-10 64.04849554148313 2.455635694786906e-10 -11.2541620679076
          5.673313495649381 158.10277997471985 -0.104685418259578 -2.1827872842550278e-10 8.185452315956354e-11 0.05305782730374631
          -14.034346515582001 -20236.933035343463 -313.5495686868444 160.25576558466128 0.058613407254597405 -3.7810796552048487
          0.8328704158293476 -5.4569682106375694e-11 209.3851085761753 -20236.933035343478 -1.0073702490399228 -3.816960920244128
          6.565358776192625 -1.5006662579253316e-10 1.0913936421275139e-10 3.1377567211166024e-10 4.092726157978177e-11 -3.001332515850663e-10
          -20225.941907672877 -4.3655745685100555e-10 -2.0463630789890885e-10 0 0.00009742045676830458 0.00005883120593352942
          -0.00004050981715408852 -176.93753843085233 -113.81102414538418 -2.2491755533656033 5.4569682106375694e-11 5.4569682106375694e-11
          6.821210263296962e-11 4.501998773775995e-10 6.548361852765083e-10 0 4.092726157978177e-11 2.7284841053187847e-11
          -20230.028365374994 -171.64654603264353 411.9349607335198 -2.7284841053187847e-11 -0.00001703971065580845 -2.0463630789890885e-10
          -20219.59429224811 -0.000013583171494246926 1.227817847393453e-10 0.5270926379080265 -57.63708440149912 -1.4576642231713777
          1.227817847393453e-10 1.6370904631912708e-10 -1.174652891495498 -1.227817847393453e-10 8.185452315956354e-11 -0.00005702291673514992
          -8.185452315956354e-11 -111.49893181442167 0.12859865117661684 -0.04601476392963377 -2.5920599000528455e-10 -0.000008947858987085056
          -20261.382089356346 1.6370904631912708e-10 -0.03130714543203794 -0.9402714773614207 0 -2.7284841053187847e-11
          -20270.256197545255 -2.0463630789890885e-10 -20225.941907672892 -5.4569682106375694e-11 0 2.319211489520967e-10
          -1.9099388737231493e-10 -0.00017403143374394858 -1.3642420526593924e-10 1.77351466845721e-10 -1.3642420526593924e-11 -4.911271389573812e-10
          -20266.564085111917 0.00831425334126834 -20254.46364798986 0.00025435911084059626 -3.54702933691442e-10 -1.3642420526593924e-11
          -20276.26995832844 -20257.32617689288 -6.821210263296962e-11 -1.0272742656525224e-8 -2.1827872842550278e-10 -13.842366248627513
          -0.000039006858969514724 -3.54702933691442e-10 -20266.564085111917 0.3707503378836918 -20260.27232312979 -1.227817847393453e-10
          2.7284841053187847e-11 -0.030143705826048972 -20276.269958328467 0.0000015347995940828696 -313.54956875054086 0.26139900990983733
          -0.000001376179170620162 0.06228922015452554 -0.9126008014527542 -2.7284841053187847e-10 -0.10805690576944471 0.0000013306816981639713
          -20235.72942826606 2.7284841053187847e-10 -20261.382089356346 -5.32054400537163e-10 1.5335598837282305 -3.084551281062886e-8
          2.1827872842550278e-10 -55.38867862191637 -20270.25619754527 -1.6507328837178648e-9 -5.4569682106375694e-11 -2.7284841053187847e-11
          -1.0913936421275139e-10 -20243.098614721825 6.821210263296962e-10 -5.456968210637569e-10 -1.3642420526593924e-11 -4.774847184307873e-10
          0.00029815009384037694 8.731149137020111e-10 -4.501998773775995e-10 0.00002061121449514758 151.7944415692864 -3.54702933691442e-10
          -1.6370904631912708e-10 1.6370904631912708e-10 -20230.02836537502 -0.007983922523635556 0.06954637913622719 2.5920599000528455e-10
          -0.15974242092852364 14.12112863549737 -20219.59429224814 -0.00021315921912901103 0.020454498580875224 0.34830474739919737
          -0.0000164200446306495 -8.220787861828285 -8.185452315956354e-11 -2.5920599000528455e-10 1.5006662579253316e-10 -20260.2723231298
          -0.000006472700988524593 -372.0910714179672 1.2278178473934531e-9 4.3655745685100555e-10 -0.1590974675173129 1.77351466845721e-10
          1.77351466845721e-10 2.319211489520967e-10 -20235.729428266073 -1.937223714776337e-9 -2.0463630789890885e-10 -0.00009400062936038012
          -5.4569682106375694e-11 -4.911271389573812e-10 -45854.2418638825 -3.2741809263825417e-10 -45691.321792524424 -1.5006662579253316e-10
          -6.821210263296962e-11 0.00004144848389842082 1.77351466845721e-10 -1.0913936421275139e-10 -2.1295276923046913 -2563.764336883214
          1.0913936421275139e-10 -2.0463630789890885e-10 1.227817847393453e-10 -6.821210263296962e-11 0 -45691.32204938554
          -1.3642420526593924e-11 -5.456968210637569e-10 -2.319211489520967e-10 -20240.089625764846 1.227817847393453e-10 -2.7284841053187847e-11
          2.7284841053187847e-11 -9.549694368615746e-11 -365.0880121993714 -20222.276483005546 2.319211489520967e-10 -0.017580450189598196
          0 -45835.41131096455 1.3642420526593924e-11 -1.6370904631912708e-10 2.7284841053187847e-11 1.3642420526593924e-11
          0.000002264177965116687 -2.7284841053187847e-10 9.07740260995979 -20222.276483005546 2.1827872842550278e-10 -7.639755494892597e-10
          0.48096230551436747 -366.6637512075249 -45603.114857456494 5.184119800105691e-10 -45835.41134556111 0.00013287264664540999
          5.4569682106375694e-11 -110.16614845709228 2.0463630789890885e-10 2.7284841053187847e-11 0.000016526919353054836 183.94311688161906
          0.000029425418688333593 -9.549694368615746e-11 -1.6370904631912708e-10 1.227817847393453e-10 -0.007456590774381766 -57.785618376419734
          -3.001332515850663e-10 2.5920599000528455e-10 -13.91979743815682 -4.501998773775995e-10 -385.1879955554841 -0.00011284880656603491
          -0.007499243924939947 -0.00006709178705932572 1.5006662579253316e-10 -171.8900940768208 -1.609805622138083e-9 -2.7284841053187847e-11
          -1.937223714776337e-9 -2.319211489520967e-10 -4.092726157978177e-11 -1.5006662579253316e-10 9.549694368615746e-11 -1.6916601452976465e-9
          6.275513442233205e-10 3.8198777474462986e-10 5.866240826435387e-10 0.0001468839036533609 1.227817847393453e-10 -12.32278950240925
          -5.729816621169448e-10 -20240.089625764846 -0.00795762089182972 -0.000018290938896825537 1.9059587119136268 2.864908310584724e-10
          -12.331552659638874 0.000037774661905132234 5.866240826435387e-10 0.00021293931695254287 -176.70868514653648 0.050307025726397114
          5.4569682106375694e-11 -2.864908310584724e-10
        </DataArray>
        <DataArray type="Float64" Name="velocity" NumberOfComponents="3" format="ascii" RangeMin="1.968501171434017e-60" RangeMax="4.1415948545079955">
          -1.6340688263448648e-15 8.976351636727796e-15 0 7.785201234118469e-12 4.568766959157042e-12 0