<?xml version="1.0"?>
<VTKFile type="PolyData" version="0.1" byte_order="LittleEndian">
  <PolyData>
    <Piece NumberOfPoints="396" NumberOfVerts="396" NumberOfLines="0" NumberOfStrips="0" NumberOfPolys="0">
      <Points>
        <DataArray type="Float64" NumberOfComponents="3" format="ascii">
          0.456170 -0.187502 35.684494
          -0.489562 -0.247350 35.562364
          0.665519 0.181843 35.123805
          0.867104 -0.143014 35.337161
          -0.315604 -0.100343 35.132228
          0.562676 0.147913 35.530914
          0.246773 0.342352 35.374959
          -0.997240 -0.031866 35.613880
          0.010257 -0.594516 35.568340
          0.242434 -0.196457 35.005602
          -0.130133 -0.336481 35.431831
          -0.055448 0.205933 34.788233
          0.429825 0.277160 35.548164
          -0.012274 0.441646 35.698654
          0.150787 -0.027074 35.241054
          -0.204805 0.298289 35.241564
          -0.519095 0.100005 35.178802
          0.808912 0.275173 35.362272
          0.429838 -0.277149 35.548159
          -0.012328 -0.441665 35.698655
          0.150776 0.027090 35.241088
          -0.204809 -0.298281 35.241554
          -0.519070 -0.099993 35.178822
          0.808923 -0.275190 35.362292
          0.246773 -0.342337 35.374980
          -0.997238 0.031860 35.613885
          0.010285 0.594492 35.568325
          0.242438 0.196449 35.005596
          -0.130141 0.336488 35.431831
          -0.055509 -0.205830 34.788157
          0.456373 0.187484 35.684541
          -0.489579 0.247355 35.562348
          0.665578 -0.181907 35.123808
          0.867036 0.142972 35.337077
          -0.315633 0.100350 35.132218
          0.562783 -0.147861 35.530859
          0.789387 0.217854 35.313314
          -0.505052 -0.222263 35.543809
          -0.599102 -0.016967 34.790859
          -0.873642 -0.114148 35.637875
          -1.021411 -0.203133 35.311999
          0.011211 0.133275 35.712929
          -0.993748 -0.242308 35.332025
          -0.485660 0.210677 35.512463
          0.576669 -0.133312 35.594379
          1.008961 0.290298 35.385053
          -0.003392 0.552923 34.863668
          -0.587653 -0.211252 35.176358
          -0.956583 0.063003 35.678148
          0.741900 -0.082518 35.711430
          -0.600335 0.269421 35.142845
          -0.730009 -0.330070 35.217763
          0.692000 -0.014389 34.936031
          -0.673246 0.093082 35.715663
          -0.956575 -0.063028 35.678151
          0.741890 0.082515 35.711441
          -0.600296 -0.269376 35.142826
          -0.729844 0.330035 35.217673
          0.692008 0.014394 34.936025
          -0.673243 -0.093089 35.715653
          -0.993789 0.242253 35.332056
          -0.485668 -0.210693 35.512451
          0.576682 0.133319 35.594390
          1.008950 -0.290311 35.385069
          -0.003391 -0.552908 34.863669
          -0.587627 0.211246 35.176385
          0.789359 -0.217824 35.313305
          -0.505130 0.222249 35.543828
          -0.599110 0.016969 34.790851
          -0.873609 0.114127 35.637851
          -1.021427 0.203154 35.312021
          0.011211 -0.133296 35.712937
          4.435421 2.616739 43.150415
          -0.450636 -0.147857 35.575501
          0.648055 -0.280985 35.149486
          0.578130 0.143242 35.153631
          -0.595583 0.017158 34.717605
          4.404477 2.614955 27.400787
          -0.352299 -0.061383 35.033609
          -0.777090 0.224971 35.374433
          0.227252 0.195325 35.002434
          -0.426227 0.280395 35.557875
          -0.627524 0.191349 35.042394
          -0.976223 0.317765 35.346420
          0.685654 -0.282569 35.139401
          0.286297 -0.003136 35.241214
          0.232383 -0.091717 35.499118
          0.295820 0.115425 35.534598
          0.500655 -0.166525 34.895045
          0.570130 -0.066023 34.732528
          0.685681 0.282590 35.139391
          0.286364 0.003142 35.241247
          0.232407 0.091692 35.499092
          0.295796 -0.115389 35.534621
          0.500656 0.166530 34.895049
          0.570132 0.066024 34.732523
          -0.352290 0.061399 35.033615
          -0.777050 -0.224957 35.374452
          0.227236 -0.195342 35.002447
          -0.426255 -0.280392 35.557889
          -0.627518 -0.191338 35.042398
          -0.976179 -0.317811 35.346434
          4.419991 -2.617834 43.158825
          -0.450601 0.147875 35.575509
          0.648108 0.281011 35.149492
          0.578126 -0.143253 35.153636
          -0.595579 -0.017166 34.717607
          4.409247 -2.603728 27.408643
          -0.019731 -0.435358 35.093855
          -0.858081 -0.004768 35.691484
          -0.315609 -0.065834 35.398881
          -0.615507 -0.050729 34.757510
          -0.949608 -0.191230 35.450591
          -0.194326 -0.399175 35.327039
          -0.951836 0.189089 35.287705
          -1.023850 0.072015 35.429688
          -0.144874 -0.064313 35.036498
          -0.076853 -0.490847 35.178220
          -0.147228 0.290620 35.010175
          -0.659092 -0.206542 35.065873
          -0.718777 -0.142882 35.661301
          -0.477165 -0.244781 35.608543
          -0.691842 0.178031 34.993489
          -0.615710 -0.217403 34.987883
          -0.882011 -0.106410 35.729872
          -0.970744 0.238830 35.275223
          -0.718768 0.142885 35.661319
          -0.477179 0.244803 35.608535
          -0.691825 -0.178052 34.993507
          -0.615721 0.217424 34.987884
          -0.882009 0.106394 35.729871
          -0.970725 -0.238803 35.275202
          -0.951853 -0.189139 35.287704
          -1.023834 -0.071962 35.429743
          -0.144875 0.064308 35.036488
          -0.076878 0.490829 35.178235
          -0.147224 -0.290624 35.010190
          -0.659126 0.206562 35.065862
          -0.019722 0.435400 35.093906
          -0.858034 0.004801 35.691537
          -0.315583 0.065808 35.398880
          -0.615511 0.050732 34.757510
          -0.949636 0.191257 35.450582
          -0.194355 0.399161 35.327086
          4.391372 2.628618 43.186149
          -0.063352 0.285562 35.279940
          0.063454 -0.517979 34.828810
          0.076470 -0.464871 35.650051
          -0.025110 0.662666 34.863548
          4.422404 2.627928 27.400433
          0.235191 0.284268 35.236389
          1.038687 -0.224696 35.344620
          0.030086 0.068191 34.665081
          -0.014610 -0.170023 35.322012
          1.069796 0.171665 35.313194
          0.268295 0.163604 35.151441
          0.042200 -0.456696 34.788095
          -0.112011 -0.081876 35.678558
          0.079717 0.546347 35.594303
          -0.073552 0.554886 34.944556
          0.140421 0.092506 35.681256
          -0.044599 -0.485888 35.604909
          0.042204 0.456646 34.788070
          -0.111650 0.081733 35.678637
          0.079726 -0.546360 35.594292
          -0.073560 -0.554871 34.944544
          0.140436 -0.092484 35.681257
          -0.044593 0.485899 35.604914
          0.235182 -0.284257 35.236369
          1.038698 0.224680 35.344638
          0.030077 -0.068214 34.665069
          -0.014619 0.170024 35.322024
          1.069789 -0.171668 35.313189
          0.268279 -0.163609 35.151454
          4.406802 -2.627523 43.177740
          -0.063358 -0.285545 35.279988
          0.063452 0.517976 34.828824
          0.076477 0.464877 35.650048
          -0.025109 -0.662669 34.863538
          4.417634 -2.639155 27.392577
          -0.000000 3.075155 41.933464
          -0.000020 0.033193 34.804886
          -0.000050 -0.139341 35.386147
          0.000004 -0.114616 35.092442
          0.000002 -0.124968 34.823304
          0.000000 3.075154 28.635436
          -0.000000 -1.267347 33.348900
          0.000016 -0.101857 34.716236
          0.000002 -0.463271 35.240208
          0.000006 -0.114267 34.911921
          -0.000021 -0.055298 35.596491
          0.000000 -0.001414 37.246630
          0.000005 0.541779 35.071927
          0.000005 -0.436485 34.931175
          0.000020 -0.173644 35.678329
          -0.000004 0.485900 35.244571
          0.000004 -0.563498 35.636640
          -0.000086 0.611340 35.578778
          -0.000011 -0.541775 35.071923
          -0.000003 0.436474 34.931163
          -0.000019 0.173705 35.678321
          0.000004 -0.485928 35.244583
          -0.000005 0.563504 35.636646
          0.000040 -0.611345 35.578777
          0.000000 1.267347 33.348899
          -0.000014 0.101640 34.716174
          0.000001 0.463266 35.240191
          -0.000009 0.114262 34.911881
          0.000020 0.055317 35.596504
          0.000000 0.001414 37.246630
          -0.000000 -3.075155 41.933464
          0.000027 -0.033157 34.804988
          0.000036 0.139332 35.386148
          -0.000003 0.114609 35.092425
          0.000004 0.124963 34.823257
          -0.000000 -3.075154 28.635436
          -4.422653 2.627713 43.170863
          0.063373 0.285560 35.279982
          -0.063454 -0.517981 34.828804
          -0.076470 -0.464872 35.650054
          0.025111 0.662667 34.863548
          -4.421825 2.625871 27.401331
          -0.235190 0.284262 35.236392
          -1.038682 -0.224703 35.344615
          -0.030084 0.068189 34.665081
          0.014612 -0.170020 35.322007
          -1.069800 0.171665 35.313197
          -0.268296 0.163606 35.151447
          -0.042199 -0.456692 34.788094
          0.111840 -0.081769 35.678608
          -0.079727 0.546370 35.594294
          0.073551 0.554880 34.944560
          -0.140421 0.092499 35.681255
          0.044597 -0.485888 35.604906
          -0.042206 0.456648 34.788071
          0.111813 0.081840 35.678589
          -0.079717 -0.546350 35.594296
          0.073558 -0.554880 34.944538
          -0.140433 -0.092495 35.681265
          0.044610 0.485891 35.604909
          -0.235183 -0.284260 35.236371
          -1.038703 0.224675 35.344642
          -0.030081 -0.068218 34.665072
          0.014615 0.170031 35.322005
          -1.069786 -0.171668 35.313188
          -0.268283 -0.163606 35.151452
          -4.411280 -2.583755 43.117084
          0.063367 -0.285566 35.279940
          -0.063453 0.517976 34.828828
          -0.076476 0.464887 35.650047
          0.025108 -0.662669 34.863539
          -4.430913 -2.631946 27.401423
          0.019731 -0.435416 35.093860
          0.858071 -0.004773 35.691494
          0.315594 -0.065835 35.398889
          0.615506 -0.050729 34.757509
          0.949593 -0.191231 35.450583
          0.194343 -0.399159 35.327102
          0.951835 0.189099 35.287706
          1.023846 0.072005 35.429698
          0.144871 -0.064307 35.036486
          0.076854 -0.490842 35.178234
          0.147226 0.290622 35.010172
          0.659098 -0.206543 35.065872
          0.718781 -0.142872 35.661305
          0.477168 -0.244778 35.608536
          0.691841 0.178038 34.993494
          0.615709 -0.217408 34.987884
          0.882006 -0.106415 35.729869
          0.970740 0.238827 35.275217
          0.718765 0.142893 35.661316
          0.477177 0.244806 35.608541
          0.691826 -0.178045 34.993503
          0.615723 0.217419 34.987883
          0.882011 0.106392 35.729873
          0.970730 -0.238807 35.275207
          0.951856 -0.189129 35.287704
          1.023838 -0.071971 35.429733
          0.144877 0.064314 35.036497
          0.076869 0.490843 35.178217
          0.147227 -0.290620 35.010189
          0.659118 0.206561 35.065865
          0.019726 0.435397 35.093818
          0.858042 0.004798 35.691528
          0.315595 0.065806 35.398875
          0.615511 0.050731 34.757510
          0.949653 0.191254 35.450590
          0.194373 0.399136 35.327061
          -4.404141 2.617644 43.165701
          0.450617 -0.147877 35.575492
          -0.648040 -0.280982 35.149486
          -0.578132 0.143242 35.153628
          0.595584 0.017151 34.717604
          -4.405055 2.617012 27.399889
          0.352299 -0.061385 35.033610
          0.777086 0.224970 35.374439
          -0.227249 0.195331 35.002440
          0.426245 0.280398 35.557889
          0.627526 0.191350 35.042396
          0.976211 0.317774 35.346417
          -0.685649 -0.282565 35.139398
          -0.286308 -0.003131 35.241227
          -0.232409 -0.091702 35.499093
          -0.295797 0.115400 35.534624
          -0.500653 -0.166521 34.895041
          -0.570129 -0.066023 34.732529
          -0.685689 0.282594 35.139394
          -0.286363 0.003151 35.241236
          -0.232384 0.091724 35.499125
          -0.295823 -0.115415 35.534600
          -0.500657 0.166532 34.895050
          -0.570131 0.066027 34.732523
          0.352291 0.061398 35.033616
          0.777055 -0.224960 35.374446
          -0.227239 -0.195338 35.002445
          0.426251 -0.280391 35.557880
          0.627516 -0.191336 35.042396
          0.976190 -0.317802 35.346435
          -4.415513 -2.661602 43.219480
          0.450618 0.147857 35.575517
          -0.648122 0.281017 35.149493
          -0.578124 -0.143248 35.153640
          0.595578 -0.017170 34.717608
          -4.395967 -2.610937 27.399797
          -0.789383 0.217856 35.313323
          0.505060 -0.222256 35.543811
          0.599103 -0.016965 34.790858
          0.873646 -0.114151 35.637875
          1.021418 -0.203147 35.312003
          -0.011211 0.133260 35.712931
          0.993757 -0.242298 35.332033
          0.485665 0.210677 35.512458
          -0.576668 -0.133322 35.594379
          -1.008963 0.290296 35.385050
          0.003393 0.552919 34.863668
          0.587659 -0.211251 35.176360
          0.956582 0.063004 35.678150
          -0.741899 -0.082522 35.711429
          0.600332 0.269416 35.142842
          0.729991 -0.330066 35.217755
          -0.691998 -0.014387 34.936034
          0.673242 0.093080 35.715664
          0.956576 -0.063028 35.678147
          -0.741892 0.082512 35.711440
          0.600298 -0.269377 35.142830
          0.729861 0.330038 35.217680
          -0.692010 0.014393 34.936022
          0.673247 -0.093090 35.715653
          0.993779 0.242261 35.332047
          0.485663 -0.210694 35.512455
          -0.576683 0.133308 35.594391
          -1.008946 -0.290314 35.385070
          0.003389 -0.552910 34.863670
          0.587624 0.211245 35.176382
          -0.789364 -0.217825 35.313296
          0.505126 0.222256 35.543829
          0.599110 0.016973 34.790852
          0.873608 0.114124 35.637854
          1.021417 0.203139 35.312016
          -0.011219 -0.133299 35.712938
          -0.456228 -0.187496 35.684515
          0.489564 -0.247348 35.562358
          -0.665508 0.181832 35.123820
          -0.867122 -0.143022 35.337182
          0.315625 -0.100342 35.132213
          -0.562653 0.147924 35.530927
          -0.246766 0.342348 35.374964
          0.997240 -0.031864 35.613881
          -0.010266 -0.594505 35.568333
          -0.242431 -0.196455 35.005598
          0.130139 -0.336492 35.431820
          0.055432 0.206011 34.788249
          -0.429823 0.277160 35.548159
          0.012289 0.441669 35.698649
          -0.150788 -0.027082 35.241052
          0.204809 0.298293 35.241560
          0.519093 0.100004 35.178813
          -0.808905 0.275171 35.362266
          -0.429839 -0.277149 35.548166
          0.012314 -0.441656 35.698668
          -0.150780 0.027101 35.241082
          0.204810 -0.298278 35.241559
          0.519057 -0.099984 35.178820
          -0.808929 -0.275192 35.362298
          -0.246793 -0.342317 35.374976
          0.997237 0.031862 35.613887
          -0.010244 0.594528 35.568353
          -0.242439 0.196451 35.005599
          0.130136 0.336486 35.431844
          0.055517 -0.205796 34.788151
          -0.456314 0.187488 35.684522
          0.489578 0.247356 35.562354
          -0.665586 -0.181919 35.123799
          -0.867017 0.142966 35.337056
          0.315611 0.100351 35.132232
          -0.562806 -0.147848 35.530843
        </DataArray>
      </Points>
      <PointData Scalars="density">
        <DataArray type="Float64" Name="density" format="ascii">
          810.864190
          938.351176
          1093.768454
          1060.576508
          1095.461388
          990.820432
          688.051301
          929.323283
          920.054573
          803.352043
          843.655168
          815.113677
          871.347424
          905.202137
          1136.693746
          912.728518
          975.031622
          954.688140
          871.377970
          905.167271
          1136.663101
          912.739873
          975.011375
          954.709320
          688.064037
          929.327701
          920.077787
          803.342514
          843.641681
          815.116551
          810.952312
          938.347843
          1093.707556
          1060.409441
          1095.432839
          990.667281
          1044.058967
          978.682218
          1002.622213
          1027.721214
          1003.262706
          863.476307
          1025.540697
          984.217654
          1031.613420
          904.073304
          986.023464
          1019.848752
          937.340626
          965.142950
          963.515238
          839.690639
          1027.892344
          923.111910
          937.340526
          965.162379
          963.525689
          839.783649
          1027.864798
          923.100759
          1025.543672
          984.198873
          1031.655775
          904.068928
          986.044696
          1019.843310
          1044.063436
          978.671666
          1002.611200
          1027.756685
          1003.268888
          863.386904
          500.000000
          1049.006685
          974.474390
          1060.862656
          834.662031
          500.000000
          963.788153
          961.326584
          799.281605
          869.391814
          1064.920948
          904.301192
          986.362302
          1109.724259
          968.302583
          970.913475
          795.154950
          814.746440
          986.366967
          1109.637120
          968.313313
          970.925436
          795.137252
          814.730584
          963.791040
          961.339058
          799.303651
          869.402144
          1064.910228
          904.280983
          500.000000
          1048.958389
          974.492947
          1060.844653
          834.666953
          500.000000
          1068.289793
          1127.125633
          968.761262
          908.155749
          1078.078272
          707.859650
          1054.493856
          1010.608069
          1074.842922
          866.670896
          819.339648
          1057.311891
          931.143697
          909.329155
          952.373659
          990.522074
          891.800415
          999.169354
          931.116710
          909.322112
          952.386419
          990.496321
          891.812042
          999.192821
          1054.500879
          1010.595215
          1074.829910
          866.660871
          819.333637
          1057.309309
          1068.263360
          1127.094769
          968.715990
          908.151549
          1078.017260
          707.818602
          500.000000
          1057.603143
          943.122119
          911.204531
          739.486161
          500.000000
          888.745928
          957.022243
          812.163932
          980.577973
          860.811350
          1033.149875
          804.339364
          969.243051
          945.294238
          997.591833
          842.932052
          1028.098005
          804.315855
          969.852571
          945.271146
          997.599465
          842.922828
          1028.121049
          888.751171
          957.028377
          812.189337
          980.565451
          860.789800
          1033.151479
          500.000000
          1057.560275
          943.190712
          911.205097
          739.496927
          500.000000
          500.000000
          1122.488401
          934.804320
          1038.759475
          997.467872
          500.000000
          500.000000
          911.607832
          950.813399
          1032.177902
          1131.975238
          500.000000
          965.520793
          1092.634744
          908.023450
          898.032038
          948.774128
          886.382301
          965.531765
          1092.701929
          907.963404
          897.957235
          948.773545
          886.358248
          500.000000
          911.768214
          950.826733
          1032.170254
          1131.972892
          500.000000
          500.000000
          1122.583449
          934.825978
          1038.724065
          997.395962
          500.000000
          500.000000
          1057.557186
          943.113159
          911.192376
          739.484961
          500.000000
          888.734339
          957.024371
          812.165471
          980.579308
          860.812111
          1033.138523
          804.336868
          969.546839
          945.265470
          997.605746
          842.922395
          1028.112036
          804.314441
          969.547730
          945.278955
          997.584984
          842.935869
          1028.098212
          888.757657
          957.025451
          812.192131
          980.589358
          860.786498
          1033.158602
          500.000000
          1057.606774
          943.192412
          911.214688
          739.497738
          500.000000
          1068.267293
          1127.120804
          968.751139
          908.156119
          1078.089983
          707.829578
          1054.501516
          1010.609750
          1074.843415
          866.666138
          819.342698
          1057.309265
          931.134902
          909.330328
          952.377889
          990.512846
          891.795827
          999.170092
          931.132757
          909.316907
          952.384827
          990.504491
          891.812276
          999.189731
          1054.494513
          1010.597958
          1074.828345
          866.660808
          819.329852
          1057.312480
          1068.289564
          1127.100737
          968.727327
          908.151037
          1078.007456
          707.824212
          500.000000
          1048.978949
          974.469124
          1060.871311
          834.661096
          500.000000
          963.793496
          961.319530
          799.295806
          869.381979
          1064.918165
          904.296643
          986.366463
          1109.701145
          968.348927
          970.868370
          795.151774
          814.745419
          986.363583
          1109.643398
          968.271063
          970.979849
          795.139576
          814.729796
          963.791617
          961.343283
          799.287924
          869.408506
          1064.912554
          904.284135
          500.000000
          1048.978085
          974.495910
          1060.835940
          834.667618
          500.000000
          1044.048948
          978.673615
          1002.621765
          1027.709144
          1003.251399
          863.487405
          1025.540204
          984.218104
          1031.625895
          904.074068
          986.029252
          1019.856293
          937.341592
          965.153772
          963.515619
          839.696787
          1027.901630
          923.126487
          937.342327
          965.153488
          963.526505
          839.775355
          1027.855944
          923.086727
          1025.546559
          984.192318
          1031.644451
          904.070917
          986.041746
          1019.836395
          1044.079467
          978.675039
          1002.610082
          1027.765775
          1003.282383
          863.387909
          810.874354
          938.344049
          1093.777828
          1060.609903
          1095.443233
          990.832017
          688.048045
          929.326738
          920.060628
          803.335299
          843.645230
          815.035241
          871.351889
          905.215335
          1136.698396
          912.738745
          975.011244
          954.684742
          871.372465
          905.151505
          1136.665791
          912.726985
          975.005876
          954.714154
          688.070426
          929.327729
          920.045604
          803.350899
          843.667368
          815.156266
          810.939752
          938.353419
          1093.701172
          1060.377029
          1095.453745
          990.655771
        </DataArray>
        <DataArray type="Float64" Name="pressure" format="ascii">
          -5674.074301
          -1849.464720
          2813.053616
          1817.295254
          2863.841643
          -275.387026
          -9358.460963
          -2120.301495
          -2398.362821
          -5899.438725
          -4690.344971
          -5546.589682
          -3859.577292
          -2843.935893
          4100.812374
          -2618.144467
          -749.051348
          -1359.355789
          -3858.660908
          -2844.981876
          4099.893017
          -2617.803798
          -749.658742
          -1358.720405
          -9358.078886
          -2120.168980
          -2397.666379
          -5899.724571
          -4690.749556
          -5546.503478
          -5671.430631
          -1849.564709
          2811.226694
          1812.283241
          2862.985176
          -279.981562
          1321.769010
          -639.533466
          78.666383
          831.636426
          97.881169
          -4095.710779
          766.220906
          -473.470374
          948.402600
          -2877.800892
          -419.296087
          595.462555
          -1879.781210
          -1045.711508
          -1094.542857
          -4809.280818
          836.770313
          -2306.642701
          -1879.784227
          -1045.128631
          -1094.229330
          -4806.490541
          835.943936
          -2306.977240
          766.310159
          -474.033813
          949.673238
          -2877.932171
          -418.659106
          595.299315
          1321.903082
          -639.850019
          78.336002
          832.700558
          98.066646
          -4098.392874
          -15000.000000
          1470.200556
          -765.768315
          1825.879688
          -4960.139067
          -15000.000000
          -1086.355407
          -1160.202494
          -6021.551839
          -3918.245584
          1947.628450
          -2870.964234
          -409.130941
          3291.727760
          -950.922516
          -872.595746
          -6145.351493
          -5557.606813
          -408.990995
          3289.113600
          -950.600611
          -872.236926
          -6145.882440
          -5558.082494
          -1086.268806
          -1159.828252
          -6020.890458
          -3917.935682
          1947.306840
          -2871.570512
          -15000.000000
          1468.751656
          -765.211582
          1825.339592
          -4959.991413
          -15000.000000
          2048.693782
          3813.768998
          -937.162134
          -2755.327519
          2342.348158
          -8764.210502
          1634.815667
          318.242066
          2245.287660
          -3999.873106
          -5419.810558
          1719.356729
          -2065.689104
          -2720.125340
          -1428.790216
          -284.337774
          -3245.987558
          -24.919389
          -2066.498697
          -2720.336628
          -1428.407434
          -285.110380
          -3245.638732
          -24.215369
          1635.026358
          317.856448
          2244.897293
          -4000.173869
          -5419.990875
          1719.279274
          2047.900786
          3812.843062
          -938.520293
          -2755.453517
          2340.517805
          -8765.441948
          -15000.000000
          1728.094283
          -1706.336428
          -2663.864073
          -7815.415182
          -15000.000000
          -3337.622146
          -1289.332705
          -5635.082053
          -582.660797
          -4175.659507
          994.496256
          -5869.819068
          -922.708461
          -1641.172859
          -72.245006
          -4712.038455
          842.940159
          -5870.524338
          -904.422861
          -1641.865635
          -72.016050
          -4712.315153
          843.631460
          -3337.464877
          -1289.148678
          -5634.319897
          -583.036481
          -4176.305992
          994.544374
          -15000.000000
          1726.808242
          -1704.278628
          -2663.847082
          -7815.092201
          -15000.000000
          -15000.000000
          3674.652029
          -1955.870408
          1162.784264
          -75.963832
          -15000.000000
          -15000.000000
          -2651.765027
          -1475.598040
          965.337047
          3959.257127
          -15000.000000
          -1034.376221
          2779.042334
          -2759.296505
          -3059.038850
          -1536.776147
          -3408.530966
          -1034.047036
          2781.057875
          -2761.097880
          -3061.282963
          -1536.793658
          -3409.252558
          -15000.000000
          -2646.953575
          -1475.198001
          965.107617
          3959.186773
          -15000.000000
          -15000.000000
          3677.503468
          -1955.220659
          1161.721938
          -78.121138
          -15000.000000
          -15000.000000
          1726.715589
          -1706.605240
          -2664.228721
          -7815.451165
          -15000.000000
          -3337.969818
          -1289.268875
          -5635.035863
          -582.620774
          -4175.636682
          994.155692
          -5869.893965
          -913.594844
          -1642.035885
          -71.827635
          -4712.328150
          843.361081
          -5870.566758
          -913.568104
          -1641.631350
          -72.450484
          -4711.923927
          842.946362
          -3337.270283
          -1289.236474
          -5634.236065
          -582.319272
          -4176.405048
          994.758050
          -15000.000000
          1728.203224
          -1704.227646