<?xml version="1.0"?>
<VTKFile type="PolyData" version="0.1" byte_order="LittleEndian">
  <PolyData>
    <Piece NumberOfPoints="8" NumberOfVerts="0" NumberOfLines="0" NumberOfStrips="0" NumberOfPolys="6">
      <Points>
        <DataArray type="Float64" NumberOfComponents="3" format="ascii">
          -2.000008 -1.000002 0.020456
          1.999992 -1.000002 0.020456
          1.999992 0.999998 0.020456
          -2.000008 0.999998 0.020456
          -2.000008 -1.000002 1.820456
          1.999992 -1.000002 1.820456
          1.999992 0.999998 1.820456
          -2.000008 0.999998 1.820456
        </DataArray>
      </Points>
      <CellData Scalars="wall_thickness">
        <DataArray type="Float64" Name="wall_thickness" format="ascii">
          0.060000
          0.060000
          0.060000
          0.060000
          0.060000
          0.060000
        </DataArray>
        <DataArray type="Float64" Name="density" format="ascii">
          550.000000
          550.000000
          550.000000
          550.000000
          550.000000
          550.000000
        </DataArray>
        <DataArray type="Float64" Name="mass" format="ascii">
          1179.974400
          1179.974400
          1179.974400
          1179.974400
          1179.974400
          1179.974400
        </DataArray>
        <DataArray type="Float64" Name="speed" format="ascii">
          0.097468
          0.097468
          0.097468
          0.097468
          0.097468
          0.097468
        </DataArray>
      </CellData>
      <Polys>
        <DataArray type="Int32" Name="connectivity" format="ascii">
          0 1 2 3
          4 5 6 7
          0 1 5 4
          1 2 6 5
          2 3 7 6
          3 0 4 7
        </DataArray>
        <DataArray type="Int32" Name="offsets" format="ascii">
          4
          8
          12
          16
          20
          24
        </DataArray>
      </Polys>
    </Piece>
  </PolyData>
</VTKFile>
