<?xml version="1.0"?>
<VTKFile type="UnstructuredGrid" version="0.1" byte_order="LittleEndian">
  <UnstructuredGrid>
    <Piece NumberOfPoints="3655" NumberOfCells="11005">
      <Points>
        <DataArray type="Float64" NumberOfComponents="3" format="ascii">
          -1.061820 -0.049785 0.409455
          -1.061900 -0.049755 -0.030000
          -1.060727 0.048470 0.407632
          -1.056118 0.048397 -0.030000
          1.033249 -0.049735 0.403559
          1.038640 -0.049684 -0.030000
          1.033921 0.048822 0.417708
          1.034015 0.048795 -0.030000
          -1.068451 -0.050455 0.406210
          -1.060483 -0.050514 -0.030000
          -1.068544 0.049571 0.409444
          -1.056240 0.049387 -0.030000
          1.038556 -0.050761 -0.030000
          1.033950 -0.050508 0.402253
          1.038719 0.049671 0.422393
          1.030061 0.049599 -0.030000
          -1.072146 -0.049714 -0.030000
          -1.069218 -0.049579 0.091249
          -1.056080 -0.050033 0.237049
          -1.056988 -0.050179 0.380538
          -1.061757 -0.049842 0.526868
          -1.064960 -0.049461 0.696909
          -1.055338 -0.049635 0.760539
          -1.060397 -0.049554 0.778633
          -1.069610 -0.049682 0.735105
          -1.072064 -0.049732 0.672253
          -1.055402 -0.049843 0.568884
          -1.073365 0.103953 0.395974
          -1.050798 0.257945 0.379390
          -1.066001 0.411479 0.344890
          -1.069517 0.403980 0.333478
          -1.061634 0.052709 0.319050
          -1.064883 -0.045593 0.333064
          -1.055268 0.044851 0.335478
          -1.073430 -0.053933 0.334384
          -1.069217 -0.404850 0.354118
          -1.051333 -0.412545 0.360300
          -1.056909 -0.259252 0.373206
          -1.065900 -0.105034 0.384421
          -1.060159 0.049088 -0.030000
          -1.050374 0.049108 0.096706
          -1.056529 0.048960 0.253833
          -1.073333 0.048528 0.377659
          -1.075715 0.048409 0.533190
          -1.075779 0.048421 0.683075
          -1.050765 0.048902 0.752888
          -1.069281 0.048853 0.777235
          -1.050068 0.049243 0.758529
          -1.052829 0.048982 0.693561
          -1.052772 0.048963 0.582993
          -1.051301 0.103949 -0.030000
          -1.058042 0.074723 -0.030000
          -1.061838 -0.074417 -0.030000
          -1.064021 -0.147669 -0.030000
          -1.060088 -0.145475 -0.030000
          -1.069718 -0.067967 -0.030000
          -1.073253 0.066706 -0.030000
          -1.050342 0.145253 -0.030000
          -1.076818 0.146647 -0.030000
          -1.073203 0.073330 -0.030000
          -1.056458 -0.075687 -0.030000
          -1.049777 -0.104382 -0.030000
          1.048361 -0.049152 -0.030000
          1.047401 -0.049714 0.087867
          1.046562 -0.050077 0.230669
          1.028774 -0.049790 0.372289
          1.033072 -0.049680 0.517191
          1.036664 -0.049705 0.670012
          1.034451 -0.049364 0.764422
          1.021535 -0.050066 0.769777
          1.047802 -0.049533 0.748314
          1.022338 -0.050236 0.664548
          1.020138 -0.050375 0.559396
          1.025149 0.103936 0.402846
          1.030485 0.257911 0.391950
          1.048648 0.412117 0.379863
          1.045870 0.404304 0.366076
          1.047374 0.052810 0.331509
          1.043682 -0.046323 0.314859
          1.040453 0.044579 0.312922
          1.033170 -0.053875 0.314200
          1.039729 -0.404495 0.368376
          1.048218 -0.412053 0.374715
          1.042964 -0.258303 0.403099
          1.039796 -0.104552 0.419476
          1.025832 0.048323 -0.030000
          1.022403 0.048160 0.076656
          1.020091 0.048029 0.232665
          1.045807 0.049035 0.409616
          1.048536 0.049219 0.554231
          1.046889 0.048339 0.681584
          1.046591 0.048326 0.742434
          1.046967 0.048381 0.763380
          1.040639 0.048616 0.724276
          1.043737 0.048163 0.665927
          1.037584 0.048723 0.543000
          1.036312 0.104411 -0.030000
          1.030436 0.075110 -0.030000
          1.048231 -0.074043 -0.030000
          1.042888 -0.147563 -0.030000
          1.025912 -0.146225 -0.030000
          1.030222 -0.068095 -0.030000
          1.047850 0.067086 -0.030000
          1.019290 0.144079 -0.030000
          1.021960 0.146591 -0.030000
          1.026751 0.073309 -0.030000
          1.048783 -0.075318 -0.030000
          1.048849 -0.104324 -0.030000
          -0.889961 -0.049224 -0.030000
          -0.757601 -0.050703 -0.030000
          -0.622335 -0.050700 -0.030000
          -0.620416 -0.049811 -0.030000
          -0.627834 -0.050143 -0.030000
          -0.609663 -0.050457 -0.030000
          -0.588402 -0.049910 -0.030000
          -0.526347 -0.049811 -0.030000
          -0.445733 -0.049692 -0.030000
          -0.348599 -0.049328 -0.030000
          -0.246775 -0.050459 -0.030000
          -0.102455 -0.050532 -0.030000
          0.047247 -0.050816 -0.030000
          0.189567 -0.050122 -0.030000
          0.335435 -0.048994 -0.030000
          0.432158 -0.049265 -0.030000
          0.508582 -0.049263 -0.030000
          0.567583 -0.049269 -0.030000
          0.583939 -0.049810 -0.030000
          0.620017 -0.050322 -0.030000
          0.617115 -0.049815 -0.030000
          0.592079 -0.050030 -0.030000
          0.720832 -0.049803 -0.030000
          0.875088 -0.049820 -0.030000
          -0.897833 -0.049226 0.425265
          -0.735172 -0.049212 0.413360
          -0.577903 -0.049238 0.399147
          -0.425875 -0.049570 0.377844
          -0.250472 -0.049403 0.351459
          -0.093165 -0.049247 0.352880
          0.045367 -0.050529 0.291343
          -0.048893 -0.050326 0.270502
          -0.141818 -0.049091 0.304527
          -0.186901 -0.049210 0.291206
          -0.163792 -0.049298 0.279003
          -0.101617 -0.050819 0.255583
          0.045968 -0.050165 0.274811
          0.162943 -0.049005 0.296610
          0.158341 -0.051164 0.260458
          0.139753 -0.049168 0.316364
          0.025255 -0.050390 0.285426
          -0.073578 -0.050452 0.299297
          0.088367 -0.049555 0.332774
          0.246984 -0.050391 0.333204
          0.407348 -0.050174 0.352879
          0.561583 -0.050004 0.347392
          0.724352 -0.050160 0.371387
          0.879193 -0.050125 0.369427
          -0.900353 0.049063 -0.030000
          -0.735235 0.049202 -0.030000
          -0.610564 0.048846 -0.030000
          -0.639431 0.048076 -0.030000
          -0.638970 0.048265 -0.030000
          -0.635661 0.047905 -0.030000
          -0.600124 0.047539 -0.030000
          -0.512341 0.049353 -0.030000
          -0.459411 0.047369 -0.030000
          -0.361238 0.048246 -0.030000
          -0.236595 0.048532 -0.030000
          -0.078990 0.049226 -0.030000
          0.076134 0.048746 -0.030000
          0.214823 0.048214 -0.030000
          0.330116 0.048256 -0.030000
          0.430283 0.047562 -0.030000
          0.496017 0.048262 -0.030000
          0.557469 0.048007 -0.030000
          0.596383 0.048261 -0.030000
          0.611698 0.049075 -0.030000
          0.617803 0.048964 -0.030000
          0.593419 0.049046 -0.030000
          0.707766 0.047567 -0.030000
          0.860012 0.047909 -0.030000
          -0.889750 0.049192 0.423171
          -0.729424 0.049403 0.423391
          -0.572873 0.049225 0.411513
          -0.437530 0.047225 0.353364
          -0.279019 0.047182 0.345345
          -0.114861 0.047359 0.317187
          0.050573 0.048545 0.341323
          -0.028326 0.049363 0.336306
          -0.141701 0.049301 0.321517
          -0.186314 0.049407 0.324120
          -0.165700 0.047992 0.269628
          -0.074791 0.047687 0.261897
          0.070206 0.048708 0.281320
          0.161432 0.048430 0.279016
          0.178611 0.048382 0.260822
          0.137019 0.047890 0.277562
          0.016133 0.047990 0.275324
          -0.077134 0.049241 0.354674
          0.084278 0.049238 0.369242
          0.245959 0.049234 0.384335
          0.404199 0.049230 0.398663
          0.555839 0.048871 0.406248
          0.707818 0.047577 0.367537
          0.872119 0.047828 0.372863
          -1.080622 -0.051664 -0.030000
          -1.050275 -0.049919 0.113294
          -1.050643 -0.050159 0.252596
          -1.077100 -0.051274 0.400688
          -1.073886 -0.052289 0.518577
          -1.072211 -0.050920 0.706892
          -1.050065 -0.049877 0.787833
          -1.049918 -0.049785 0.805244
          -1.050046 -0.049880 0.781639
          -1.053489 -0.051561 0.659303
          -1.053891 -0.051635 0.546488
          -1.051573 0.103045 0.390859
          -1.053143 0.256196 0.360355
          -1.052485 0.410152 0.345066
          -1.052552 0.404556 0.328634
          -1.052018 0.052686 0.320853
          -1.057921 -0.047561 0.288172
          -1.055617 0.044342 0.300447
          -1.054366 -0.055148 0.311085
          -1.058557 -0.408195 0.306684
          -1.057672 -0.411533 0.392826
          -1.056753 -0.257657 0.411013
          -1.063578 -0.104164 0.422121
          -1.050903 0.049663 -0.030000
          -1.066995 0.048627 0.055841
          -1.062476 0.048712 0.200633
          -1.079492 0.048370 0.394488
          -1.050086 0.050165 0.570214
          -1.050428 0.049959 0.708356
          -1.079513 0.047971 0.743981
          -1.076212 0.047629 0.756522
          -1.070384 0.047866 0.718263
          -1.051087 0.050048 0.714028
          -1.072206 0.049089 0.585002
          -1.065652 0.103306 -0.030000
          -1.073925 0.073797 -0.030000
          -1.050007 -0.073627 -0.030000
          -1.050054 -0.147263 -0.030000
          -1.051208 -0.145998 -0.030000
          -1.053192 -0.069091 -0.030000
          -1.051959 0.066279 -0.030000
          -1.057054 0.143060 -0.030000
          -1.054901 0.145221 -0.030000
          -1.062437 0.072330 -0.030000
          -1.059175 -0.078113 -0.030000
          -1.058538 -0.106129 -0.030000
          -0.897700 -0.049990 -0.030000
          -0.759350 -0.051974 -0.030000
[...]
      <CellData Scalars="wall_thickness">
        <DataArray type="Float64" Name="wall_thickness" format="ascii">
          0.000800
          0.000800
          0.000800
          0.000800
          0.000800
          0.000800
          0.000800
          0.000800
          0.000800
          0.000800
          0.000800
          0.000800
          0.000800
          0.000800
          0.000800
          0.000800
          0.000800
          0.000800
          0.000800
          0.000800
          0.000800
          0.000800
          0.000800
          0.000800
          0.000800
          0.000800
          0.000800
          0.000800
          0.000800
          0.000800
          0.000800
          0.000800
          0.000800
          0.000800
          0.000800
          0.000800
          0.000800
          0.000800
          0.000800
          0.000800
          0.000800
          0.000800
          0.000800
          0.000800
          0.000800
          0.000800
          0.000800
          0.000800
          0.000800
          0.000800
          0.000800
          0.000800
          0.000800
          0.000800
          0.000800
          0.000800
          0.000800
          0.000800
          0.000800
          0.000800
          0.000800
          0.000800
          0.000800
          0.000800
          0.000800
          0.000800
          0.000800
          0.000800
          0.000800
          0.000800
          0.000800
          0.000800
          0.000800
          0.000800
          0.000800
          0.000800
          0.000800
          0.000800
          0.000800
          0.000800
          0.000800
          0.000800
          0.000800
          0.000800
          0.000800
          0.000800
          0.000800
          0.000800
          0.000800
          0.000800
          0.000800
          0.000800
          0.000800
          0.000800
          0.000800
          0.000800
          0.000800
          0.000800
          0.000800
          0.000800
          0.000800
          0.000800
          0.000800
          0.000800
          0.000800
          0.000800
          0.000800
          0.000800
          0.000800
          0.000800
          0.000800
          0.000800
          0.000800
          0.000800
          0.000800
          0.000800
          0.000800
          0.000800
          0.000800
          0.000800
          0.000800
          0.000800
          0.000800
          0.000800
          0.000800
          0.000800
          0.000800
          0.000800
          0.000800
          0.000800
          0.000800
          0.000800
          0.000800
          0.000800
          0.000800
          0.000800
          0.000800
          0.000800
          0.000800
          0.000800
          0.000800
          0.000800
          0.000800
          0.000800
          0.000800
          0.000800
          0.000800
          0.000800
          0.000800
          0.000800
          0.000800
          0.000800
          0.000800
          0.000800
          0.000800
          0.000800
          0.000800
          0.000800
          0.000800
          0.000800
          0.000800
          0.000800
          0.000800
          0.000800
          0.000800
          0.000800
          0.000800
          0.000800
          0.000800
          0.000800
          0.000800
          0.000800
          0.000800
          0.000800
          0.000800
          0.000800
          0.000800
          0.000800
          0.000800
          0.000800
          0.000800
          0.000800
          0.000800
          0.000800
          0.000800
          0.000800
          0.000800
          0.000800
          0.000800
          0.000800
          0.000800
          0.000800
          0.000800
          0.000800
          0.000800
          0.000800
          0.000800
          0.000800
          0.000800
          0.000800
          0.000800
          0.000800
          0.000800
          0.000800
          0.000800
          0.000800
          0.000800
          0.000800
          0.000800
          0.000800
          0.000800
          0.000800
          0.000800
          0.000800
          0.000800
          0.000800
          0.000800
          0.000800
          0.000800
          0.000800
          0.000800
          0.000800
          0.000800
          0.000800
          0.000800
          0.000800
          0.000800
          0.000800
          0.000800
          0.000800
          0.000800
          0.000800
          0.000800
          0.000800
          0.000800
          0.000800
          0.000800
          0.000800
          0.000800
          0.000800
          0.000800
          0.000800
          0.000800
          0.000800
          0.000800
          0.000800
          0.000800
          0.000800
          0.000800
          0.000800
          0.000800
          0.000800
          0.000800
          0.000800
          0.000800
          0.000800
          0.000800
          0.000800
          0.000800
          0.000800
          0.000800
          0.000800
          0.000800
          0.000800
          0.000800
          0.000800
          0.000800
          0.000800
          0.000800
          0.000800
          0.000800
          0.000800
          0.000800
          0.000800
          0.000800
          0.000800
          0.000800
          0.000800
          0.000800
          0.000800
          0.000800
          0.000800
          0.000800
          0.000800
          0.000800
          0.000800
          0.000800
          0.000800
          0.000800
          0.000800
          0.000800
          0.000800
          0.000800
          0.000800
          0.000800
          0.000800
          0.000800
          0.000800
          0.000800
          0.000800
          0.000800
          0.000800
          0.000800
          0.000800
          0.000800
          0.000800
          0.000800
          0.000800
          0.000800
          0.000800
          0.000800
          0.000800
          0.000800
          0.000800
          0.000800
          0.000800
          0.000800
          0.000800
          0.000800
          0.000800
          0.000800
          0.000800
          0.000800
          0.000800
          0.000800
          0.000800
          0.000800
          0.000800
          0.000800
          0.000800
          0.000800
          0.000800
          0.000800
          0.000800
          0.000800
          0.000800
          0.000800
          0.000800
          0.000800
          0.000800
          0.000800
          0.000800
          0.000800
          0.000800
          0.000800
          0.000800
          0.000800
          0.000800
          0.000800
          0.000800
          0.000800
          0.000800
          0.000800
          0.000800
          0.000800
          0.000800
          0.000800
          0.000800
          0.000800
          0.000800
          0.000800
          0.000800
          0.000800
          0.000800
          0.000800
          0.000800
          0.000800
          0.000800
          0.000800
          0.000800
          0.000800
          0.000800
          0.000800
          0.000800
          0.000800
          0.000800
          0.000800
          0.000800
          0.000800
          0.000800
          0.000800
          0.000800
          0.000800
          0.000800
          0.000800
          0.000800
          0.000800
          0.000800
          0.000800
          0.000800
          0.000800
          0.000800
          0.000800
          0.000800
          0.000800
          0.000800
          0.000800
          0.000800
          0.000800
          0.000800
          0.000800
          0.000800
          0.000800
          0.000800
          0.000800
          0.000800
          0.000800
          0.000800
          0.000800
          0.000800
          0.000800
          0.000800
          0.000800
          0.000800
          0.000800
          0.000800
          0.000800
          0.000800
          0.000800
          0.000800
          0.000800
          0.000800
          0.000800
          0.000800
          0.000800
          0.000800
          0.000800
          0.000800
          0.000800
          0.000800
          0.000800
          0.000800
          0.000800
          0.000800
          0.000800
          0.000800
          0.000800
          0.000800
          0.000800
          0.000800
          0.000800
          0.000800
          0.000800
          0.000800
          0.000800
          0.000800
          0.000800
          0.000800
          0.000800
          0.000800
          0.000800
          0.000800
          0.000800
          0.000800
          0.000800
          0.000800
          0.000800
          0.000800
          0.000800
          0.000800
          0.000800
          0.000800
          0.000800
          0.000800
          0.000800
          0.000800
          0.000800
          0.000800
          0.000800
          0.000800
          0.000800
          0.000800
          0.000800
          0.000800
          0.000800
          0.000800
          0.000800
          0.000800
          0.000800
          0.000800
          0.000800
          0.000800
          0.000800
          0.000800
          0.000800
          0.000800
          0.000800
          0.000800
          0.000800
          0.000800
          0.000800
          0.000800
          0.000800
          0.000800
          0.000800
          0.000800
          0.000800
          0.000800
          0.000800
          0.000800
          0.000800
          0.000800
          0.000800
          0.000800
          0.000800
          0.000800
          0.000800
          0.000800
          0.000800
          0.000800
          0.000800
          0.000800
          0.000800
          0.000800
          0.000800
          0.000800
          0.000800
          0.000800
          0.000800
          0.000800
          0.000800
          0.000800
          0.000800
          0.000800
          0.000800
          0.000800
          0.000800
          0.000800
          0.000800
          0.000800
          0.000800
          0.000800
          0.000800
          0.000800
          0.000800
          0.000800
          0.000800
          0.000800
          0.000800
          0.000800
          0.000800
          0.000800
          0.000800
          0.000800
          0.000800
          0.000800
          0.000800
          0.000800
          0.000800
          0.000800
          0.000800
          0.000800
          0.000800
          0.000800
          0.000800
          0.000800
          0.000800
          0.000800
          0.000800
          0.000800
          0.000800
          0.000800
          0.000800
          0.000800
          0.000800
          0.000800
          0.000800
          0.000800
          0.000800
          0.000800
          0.000800
          0.000800
          0.000800
          0.000800
          0.000800
          0.000800
          0.000800
          0.000800
          0.000800
          0.000800
          0.000800
          0.000800
          0.000800
          0.000800
          0.000800
          0.000800
          0.000800
          0.000800
          0.000800
          0.000800
          0.000800
          0.000800
          0.000800
          0.000800
          0.000800
          0.000800
          0.000800
          0.000800
          0.000800
          0.000800
          0.000800
          0.000800
          0.000800
          0.000800
          0.000800
          0.000800
          0.000800
          0.000800
          0.000800
          0.000800
          0.000800
          0.000800
          0.000800
          0.000800
          0.000800
          0.000800
          0.000800
          0.000800
          0.000800
          0.000800
          0.000800
          0.000800
          0.000800
          0.000800
          0.000800
          0.000800
          0.000800
          0.000800
          0.000800
          0.000800
          0.000800
          0.000800
          0.000800
          0.000800
          0.000800
          0.000800
          0.000800
          0.000800
          0.000800
          0.000800
          0.000800
          0.000800
          0.000800
          0.000800
          0.000800
          0.000800
          0.000800
          0.000800
          0.000800
          0.000800
          0.000800
          0.000800
          0.000800
          0.000800
          0.000800
          0.000800
          0.000800
          0.000800
          0.000800
          0.000800
          0.000800
          0.000800
          0.000800
          0.000800
          0.000800
          0.000800
          0.000800
          0.000800
          0.000800
          0.000800
          0.000800
          0.000800
          0.000800
          0.000800
          0.000800
          0.000800
          0.000800
          0.000800
          0.000800
          0.000800
          0.000800
          0.000800
          0.000800
          0.000800
          0.000800
          0.000800
          0.000800
          0.000800
          0.000800
          0.000800
          0.000800
          0.000800
          0.000800
          0.000800
          0.000800
          0.000800
          0.000800
          0.000800
          0.000800
          0.000800
          0.000800
          0.000800
          0.000800
          0.000800
          0.000800
          0.000800
          0.000800
          0.000800
          0.000800
          0.000800
          0.000800
          0.000800
          0.000800
          0.000800
          0.000800
          0.000800
          0.000800
          0.000800
          0.000800
          0.000800
          0.000800
          0.000800
          0.000800
          0.000800
          0.000800
          0.000800
          0.000800
          0.000800
          0.000800
          0.000800
          0.000800
          0.000800
          0.000800
          0.000800
          0.000800
          0.000800
          0.000800
          0.000800
          0.000800
          0.000800
          0.000800
          0.000800
          0.000800
          0.000800
          0.000800
          0.000800
          0.000800
          0.000800
          0.000800
          0.000800
          0.000800
          0.000800
          0.000800
          0.000800
          0.000800
          0.000800
          0.000800
          0.000800
          0.000800
          0.000800
          0.000800
          0.000800
          0.000800
          0.000800
          0.000800
          0.000800
          0.000800
          0.000800
          0.000800
          0.000800
          0.000800
          0.000800
          0.000800
          0.000800
          0.000800
          0.000800
          0.000800
          0.000800
          0.000800
          0.000800
          0.000800
          0.000800
          0.000800
          0.000800
          0.000800
          0.000800
          0.000800
          0.000800
          0.000800
          0.000800
          0.000800
          0.000800
          0.000800
          0.000800
          0.000800
          0.000800
          0.000800
          0.000800
          0.000800
          0.000800
          0.000800
          0.000800
          0.000800
          0.000800
          0.000800
          0.000800
          0.000800
          0.000800
          0.000800
          0.000800
          0.000800
          0.000800
          0.000800
          0.000800
          0.000800
          0.000800
          0.000800
          0.000800
          0.000800
          0.000800
          0.000800
          0.000800
          0.000800
          0.000800
          0.000800
          0.000800
          0.000800
          0.000800
          0.000800
          0.000800
          0.000800
          0.000800
          0.000800
          0.000800
          0.000800
          0.000800
          0.000800
          0.000800
          0.000800
          0.000800
          0.000800
          0.000800
          0.000800
          0.000800
          0.000800
          0.000800
          0.000800
          0.000800
          0.000800
          0.000800
          0.000800
          0.000800
          0.000800
          0.000800
          0.000800
          0.000800
          0.000800
          0.000800
          0.000800
          0.000800
          0.000800
          0.000800
          0.000800
          0.000800
          0.000800
          0.000800
          0.000800
          0.000800
          0.000800
          0.000800
          0.000800
          0.000800
          0.000800
          0.000800
          0.000800
          0.000800
          0.000800
          0.000800
          0.000800
          0.000800
          0.000800
          0.000800
          0.000800
          0.000800
          0.000800
          0.000800
          0.000800
          0.000800
          0.000800
          0.000800
          0.000800
          0.000800
          0.000800
          0.000800
          0.000800
          0.000800
          0.000800
          0.000800
          0.000800
          0.000800
          0.000800
          0.000800
          0.000800
          0.000800
          0.000800
          0.000800
          0.000800
          0.000800
          0.000800
          0.000800
          0.000800
          0.000800
          0.000800
          0.000800
          0.000800
          0.000800
          0.000800
          0.000800
          0.000800
          0.000800
          0.000800
          0.000800
          0.000800
          0.000800
          0.000800
          0.000800
          0.000800
          0.000800
          0.000800
          0.000800
          0.000800
          0.000800
          0.000800
          0.000800
          0.000800
          0.000800
          0.000800
          0.000800
          0.000800
          0.000800
          0.000800
          0.000800
          0.000800
          0.000800
          0.000800
          0.000800
          0.000800
          0.000800
          0.000800
          0.000800
          0.000800
          0.000800
          0.000800
          0.000800
          0.000800
          0.000800
          0.000800
          0.000800
          0.000800
          0.000800
          0.000800
          0.000800
          0.000800
          0.000800
          0.000800
          0.000800
          0.000800
          0.000800
          0.000800
          0.000800
          0.000800
          0.000800
          0.000800
          0.000800
          0.000800
          0.000800
          0.000800
          0.000800
          0.000800
          0.000800
          0.000800
          0.000800
          0.000800
          0.000800
          0.000800
          0.000800
          0.000800
          0.000800
          0.000800
          0.000800
          0.000800
          0.000800
          0.000800
          0.000800
          0.000800
          0.000800
          0.000800
          0.000800
          0.000800
          0.000800
          0.000800
          0.000800
          0.000800
          0.000800
          0.000800
          0.000800
          0.000800
          0.000800
          0.000800
          0.000800
          0.000800
          0.000800
          0.000800
          0.000800
          0.000800
          0.000800
          0.000800
          0.000800
          0.000800
          0.000800
          0.000800
          0.000800
          0.000800
          0.000800
          0.000800
          0.000800
          0.000800
          0.000800
          0.000800
          0.000800
          0.000800
          0.000800
          0.000800
          0.000800
          0.000800
          0.000800
          0.000800
          0.000800
          0.000800
          0.000800
          0.000800
          0.000800
          0.000800
          0.000800
          0.000800
          0.000800