<?xml version="1.0"?>
<VTKFile type="PolyData" version="0.1" byte_order="LittleEndian">
  <PolyData>
    <Piece NumberOfPoints="8" NumberOfVerts="0" NumberOfLines="0" NumberOfStrips="0" NumberOfPolys="6">
      <Points>
        <DataArray type="Float64" NumberOfComponents="3" format="ascii">
          -1.999903 -1.000003 -0.203529
          2.000097 -1.000003 -0.203529
          2.000097 0.999997 -0.203529
          -1.999903 0.999997 -0.203529
          -1.999903 -1.000003 1.596471
          2.000097 -1.000003 1.596471
          2.000097 0.999997 1.596471
          -1.999903 0.999997 1.596471
        </DataArray>
      </Points>
      <CellData Scalars="wall_thickness">
        <DataArray type="Float64" Name="wall_thickness" format="ascii">
          0.060000
          0.060000
          0.060000
          0.060000
          0.060000
          0.060000
        </DataArray>
        <DataArray type="Float64" Name="density" format="ascii">
          550.000000
          550.000000
          550.000000
          550.000000
          550.000000
          550.000000
        </DataArray>
        <DataArray type="Float64" Name="mass" format="ascii">
          1179.974400
          1179.974400
          1179.974400
          1179.974400
          1179.974400
          1179.974400
        </DataArray>
        <DataArray type="Float64" Name="speed" format="ascii">
          0.050191
          0.050191
          0.050191
          0.050191
          0.050191
          0.050191
        </DataArray>
      </CellData>
      <Polys>
        <DataArray type="Int32" Name="connectivity" format="ascii">
          0 1 2 3
          4 5 6 7
          0 1 5 4
          1 2 6 5
          2 3 7 6
          3 0 4 7
        </DataArray>
        <DataArray type="Int32" Name="offsets" format="ascii">
          4
          8
          12
          16
          20
          24
        </DataArray>
      </Polys>
    </Piece>
  </PolyData>
</VTKFile>
